n -t 0 -s 0 -S DLABEL -l "TCP Source" -L ""
n -t 0 -s 1 -S DLABEL -l "UDP Source" -L ""
n -t 0 -s 2 -S DLABEL -l "router" -L ""
n -t 0 -s 3 -S DLABEL -l "Sink/Null" -L ""
V -t * -v 1.0a5 -a 0
A -t * -n 1 -p 0 -o 0xffffffff -c 31 -a 1
A -t * -h 1 -m 2147483647 -s 0
c -t * -i 1 -n blue
c -t * -i 2 -n red
n -t * -a 0 -s 0 -S UP -v circle -c black -i black
n -t * -a 1 -s 1 -S UP -v circle -c black -i black
n -t * -a 2 -s 2 -S UP -v circle -c black -i black
n -t * -a 3 -s 3 -S UP -v circle -c black -i black
l -t * -s 0 -d 2 -S UP -r 2000000 -D 0.01 -c black -o right-down
l -t * -s 1 -d 2 -S UP -r 2000000 -D 0.01 -c black -o right-up
l -t * -s 2 -d 3 -S UP -r 1000000 -D 0.01 -c black -o right
+ -t 0.1 -s 1 -d 2 -p cbr -e 1000 -c 0 -i 0 -a 0 -x {1.0 3.0 0 ------- null}
- -t 0.1 -s 1 -d 2 -p cbr -e 1000 -c 0 -i 0 -a 0 -x {1.0 3.0 0 ------- null}
h -t 0.1 -s 1 -d 2 -p cbr -e 1000 -c 0 -i 0 -a 0 -x {1.0 3.0 -1 ------- null}
+ -t 0.1 -s 1 -d 2 -p cbr -e 500 -c 0 -i 1 -a 0 -x {1.0 3.0 1 ------- null}
- -t 0.104 -s 1 -d 2 -p cbr -e 500 -c 0 -i 1 -a 0 -x {1.0 3.0 1 ------- null}
h -t 0.104 -s 1 -d 2 -p cbr -e 500 -c 0 -i 1 -a 0 -x {1.0 3.0 -1 ------- null}
r -t 0.114 -s 1 -d 2 -p cbr -e 1000 -c 0 -i 0 -a 0 -x {1.0 3.0 0 ------- null}
+ -t 0.114 -s 2 -d 3 -p cbr -e 1000 -c 0 -i 0 -a 0 -x {1.0 3.0 0 ------- null}
- -t 0.114 -s 2 -d 3 -p cbr -e 1000 -c 0 -i 0 -a 0 -x {1.0 3.0 0 ------- null}
h -t 0.114 -s 2 -d 3 -p cbr -e 1000 -c 0 -i 0 -a 0 -x {1.0 3.0 -1 ------- null}
r -t 0.116 -s 1 -d 2 -p cbr -e 500 -c 0 -i 1 -a 0 -x {1.0 3.0 1 ------- null}
+ -t 0.116 -s 2 -d 3 -p cbr -e 500 -c 0 -i 1 -a 0 -x {1.0 3.0 1 ------- null}
- -t 0.122 -s 2 -d 3 -p cbr -e 500 -c 0 -i 1 -a 0 -x {1.0 3.0 1 ------- null}
h -t 0.122 -s 2 -d 3 -p cbr -e 500 -c 0 -i 1 -a 0 -x {1.0 3.0 -1 ------- null}
r -t 0.132 -s 2 -d 3 -p cbr -e 1000 -c 0 -i 0 -a 0 -x {1.0 3.0 0 ------- null}
r -t 0.136 -s 2 -d 3 -p cbr -e 500 -c 0 -i 1 -a 0 -x {1.0 3.0 1 ------- null}
+ -t 0.15 -s 1 -d 2 -p cbr -e 1000 -c 0 -i 2 -a 0 -x {1.0 3.0 2 ------- null}
- -t 0.15 -s 1 -d 2 -p cbr -e 1000 -c 0 -i 2 -a 0 -x {1.0 3.0 2 ------- null}
h -t 0.15 -s 1 -d 2 -p cbr -e 1000 -c 0 -i 2 -a 0 -x {1.0 3.0 -1 ------- null}
+ -t 0.15 -s 1 -d 2 -p cbr -e 500 -c 0 -i 3 -a 0 -x {1.0 3.0 3 ------- null}
- -t 0.154 -s 1 -d 2 -p cbr -e 500 -c 0 -i 3 -a 0 -x {1.0 3.0 3 ------- null}
h -t 0.154 -s 1 -d 2 -p cbr -e 500 -c 0 -i 3 -a 0 -x {1.0 3.0 -1 ------- null}
r -t 0.164 -s 1 -d 2 -p cbr -e 1000 -c 0 -i 2 -a 0 -x {1.0 3.0 2 ------- null}
+ -t 0.164 -s 2 -d 3 -p cbr -e 1000 -c 0 -i 2 -a 0 -x {1.0 3.0 2 ------- null}
- -t 0.164 -s 2 -d 3 -p cbr -e 1000 -c 0 -i 2 -a 0 -x {1.0 3.0 2 ------- null}
h -t 0.164 -s 2 -d 3 -p cbr -e 1000 -c 0 -i 2 -a 0 -x {1.0 3.0 -1 ------- null}
r -t 0.166 -s 1 -d 2 -p cbr -e 500 -c 0 -i 3 -a 0 -x {1.0 3.0 3 ------- null}
+ -t 0.166 -s 2 -d 3 -p cbr -e 500 -c 0 -i 3 -a 0 -x {1.0 3.0 3 ------- null}
- -t 0.172 -s 2 -d 3 -p cbr -e 500 -c 0 -i 3 -a 0 -x {1.0 3.0 3 ------- null}
h -t 0.172 -s 2 -d 3 -p cbr -e 500 -c 0 -i 3 -a 0 -x {1.0 3.0 -1 ------- null}
r -t 0.182 -s 2 -d 3 -p cbr -e 1000 -c 0 -i 2 -a 0 -x {1.0 3.0 2 ------- null}
r -t 0.186 -s 2 -d 3 -p cbr -e 500 -c 0 -i 3 -a 0 -x {1.0 3.0 3 ------- null}
+ -t 0.2 -s 1 -d 2 -p cbr -e 1000 -c 0 -i 4 -a 0 -x {1.0 3.0 4 ------- null}
- -t 0.2 -s 1 -d 2 -p cbr -e 1000 -c 0 -i 4 -a 0 -x {1.0 3.0 4 ------- null}
h -t 0.2 -s 1 -d 2 -p cbr -e 1000 -c 0 -i 4 -a 0 -x {1.0 3.0 -1 ------- null}
+ -t 0.2 -s 1 -d 2 -p cbr -e 500 -c 0 -i 5 -a 0 -x {1.0 3.0 5 ------- null}
- -t 0.204 -s 1 -d 2 -p cbr -e 500 -c 0 -i 5 -a 0 -x {1.0 3.0 5 ------- null}
h -t 0.204 -s 1 -d 2 -p cbr -e 500 -c 0 -i 5 -a 0 -x {1.0 3.0 -1 ------- null}
r -t 0.214 -s 1 -d 2 -p cbr -e 1000 -c 0 -i 4 -a 0 -x {1.0 3.0 4 ------- null}
+ -t 0.214 -s 2 -d 3 -p cbr -e 1000 -c 0 -i 4 -a 0 -x {1.0 3.0 4 ------- null}
- -t 0.214 -s 2 -d 3 -p cbr -e 1000 -c 0 -i 4 -a 0 -x {1.0 3.0 4 ------- null}
h -t 0.214 -s 2 -d 3 -p cbr -e 1000 -c 0 -i 4 -a 0 -x {1.0 3.0 -1 ------- null}
r -t 0.216 -s 1 -d 2 -p cbr -e 500 -c 0 -i 5 -a 0 -x {1.0 3.0 5 ------- null}
+ -t 0.216 -s 2 -d 3 -p cbr -e 500 -c 0 -i 5 -a 0 -x {1.0 3.0 5 ------- null}
- -t 0.222 -s 2 -d 3 -p cbr -e 500 -c 0 -i 5 -a 0 -x {1.0 3.0 5 ------- null}
h -t 0.222 -s 2 -d 3 -p cbr -e 500 -c 0 -i 5 -a 0 -x {1.0 3.0 -1 ------- null}
r -t 0.232 -s 2 -d 3 -p cbr -e 1000 -c 0 -i 4 -a 0 -x {1.0 3.0 4 ------- null}
r -t 0.236 -s 2 -d 3 -p cbr -e 500 -c 0 -i 5 -a 0 -x {1.0 3.0 5 ------- null}
+ -t 0.25 -s 1 -d 2 -p cbr -e 1000 -c 0 -i 6 -a 0 -x {1.0 3.0 6 ------- null}
- -t 0.25 -s 1 -d 2 -p cbr -e 1000 -c 0 -i 6 -a 0 -x {1.0 3.0 6 ------- null}
h -t 0.25 -s 1 -d 2 -p cbr -e 1000 -c 0 -i 6 -a 0 -x {1.0 3.0 -1 ------- null}
+ -t 0.25 -s 1 -d 2 -p cbr -e 500 -c 0 -i 7 -a 0 -x {1.0 3.0 7 ------- null}
- -t 0.254 -s 1 -d 2 -p cbr -e 500 -c 0 -i 7 -a 0 -x {1.0 3.0 7 ------- null}
h -t 0.254 -s 1 -d 2 -p cbr -e 500 -c 0 -i 7 -a 0 -x {1.0 3.0 -1 ------- null}
r -t 0.264 -s 1 -d 2 -p cbr -e 1000 -c 0 -i 6 -a 0 -x {1.0 3.0 6 ------- null}
+ -t 0.264 -s 2 -d 3 -p cbr -e 1000 -c 0 -i 6 -a 0 -x {1.0 3.0 6 ------- null}
- -t 0.264 -s 2 -d 3 -p cbr -e 1000 -c 0 -i 6 -a 0 -x {1.0 3.0 6 ------- null}
h -t 0.264 -s 2 -d 3 -p cbr -e 1000 -c 0 -i 6 -a 0 -x {1.0 3.0 -1 ------- null}
r -t 0.266 -s 1 -d 2 -p cbr -e 500 -c 0 -i 7 -a 0 -x {1.0 3.0 7 ------- null}
+ -t 0.266 -s 2 -d 3 -p cbr -e 500 -c 0 -i 7 -a 0 -x {1.0 3.0 7 ------- null}
- -t 0.272 -s 2 -d 3 -p cbr -e 500 -c 0 -i 7 -a 0 -x {1.0 3.0 7 ------- null}
h -t 0.272 -s 2 -d 3 -p cbr -e 500 -c 0 -i 7 -a 0 -x {1.0 3.0 -1 ------- null}
r -t 0.282 -s 2 -d 3 -p cbr -e 1000 -c 0 -i 6 -a 0 -x {1.0 3.0 6 ------- null}
r -t 0.286 -s 2 -d 3 -p cbr -e 500 -c 0 -i 7 -a 0 -x {1.0 3.0 7 ------- null}
+ -t 0.3 -s 1 -d 2 -p cbr -e 1000 -c 0 -i 8 -a 0 -x {1.0 3.0 8 ------- null}
- -t 0.3 -s 1 -d 2 -p cbr -e 1000 -c 0 -i 8 -a 0 -x {1.0 3.0 8 ------- null}
h -t 0.3 -s 1 -d 2 -p cbr -e 1000 -c 0 -i 8 -a 0 -x {1.0 3.0 -1 ------- null}
+ -t 0.3 -s 1 -d 2 -p cbr -e 500 -c 0 -i 9 -a 0 -x {1.0 3.0 9 ------- null}
- -t 0.304 -s 1 -d 2 -p cbr -e 500 -c 0 -i 9 -a 0 -x {1.0 3.0 9 ------- null}
h -t 0.304 -s 1 -d 2 -p cbr -e 500 -c 0 -i 9 -a 0 -x {1.0 3.0 -1 ------- null}
r -t 0.314 -s 1 -d 2 -p cbr -e 1000 -c 0 -i 8 -a 0 -x {1.0 3.0 8 ------- null}
+ -t 0.314 -s 2 -d 3 -p cbr -e 1000 -c 0 -i 8 -a 0 -x {1.0 3.0 8 ------- null}
- -t 0.314 -s 2 -d 3 -p cbr -e 1000 -c 0 -i 8 -a 0 -x {1.0 3.0 8 ------- null}
h -t 0.314 -s 2 -d 3 -p cbr -e 1000 -c 0 -i 8 -a 0 -x {1.0 3.0 -1 ------- null}
r -t 0.316 -s 1 -d 2 -p cbr -e 500 -c 0 -i 9 -a 0 -x {1.0 3.0 9 ------- null}
+ -t 0.316 -s 2 -d 3 -p cbr -e 500 -c 0 -i 9 -a 0 -x {1.0 3.0 9 ------- null}
- -t 0.322 -s 2 -d 3 -p cbr -e 500 -c 0 -i 9 -a 0 -x {1.0 3.0 9 ------- null}
h -t 0.322 -s 2 -d 3 -p cbr -e 500 -c 0 -i 9 -a 0 -x {1.0 3.0 -1 ------- null}
r -t 0.332 -s 2 -d 3 -p cbr -e 1000 -c 0 -i 8 -a 0 -x {1.0 3.0 8 ------- null}
r -t 0.336 -s 2 -d 3 -p cbr -e 500 -c 0 -i 9 -a 0 -x {1.0 3.0 9 ------- null}
+ -t 0.35 -s 1 -d 2 -p cbr -e 1000 -c 0 -i 10 -a 0 -x {1.0 3.0 10 ------- null}
- -t 0.35 -s 1 -d 2 -p cbr -e 1000 -c 0 -i 10 -a 0 -x {1.0 3.0 10 ------- null}
h -t 0.35 -s 1 -d 2 -p cbr -e 1000 -c 0 -i 10 -a 0 -x {1.0 3.0 -1 ------- null}
+ -t 0.35 -s 1 -d 2 -p cbr -e 500 -c 0 -i 11 -a 0 -x {1.0 3.0 11 ------- null}
- -t 0.354 -s 1 -d 2 -p cbr -e 500 -c 0 -i 11 -a 0 -x {1.0 3.0 11 ------- null}
h -t 0.354 -s 1 -d 2 -p cbr -e 500 -c 0 -i 11 -a 0 -x {1.0 3.0 -1 ------- null}
r -t 0.364 -s 1 -d 2 -p cbr -e 1000 -c 0 -i 10 -a 0 -x {1.0 3.0 10 ------- null}
+ -t 0.364 -s 2 -d 3 -p cbr -e 1000 -c 0 -i 10 -a 0 -x {1.0 3.0 10 ------- null}
- -t 0.364 -s 2 -d 3 -p cbr -e 1000 -c 0 -i 10 -a 0 -x {1.0 3.0 10 ------- null}
h -t 0.364 -s 2 -d 3 -p cbr -e 1000 -c 0 -i 10 -a 0 -x {1.0 3.0 -1 ------- null}
r -t 0.366 -s 1 -d 2 -p cbr -e 500 -c 0 -i 11 -a 0 -x {1.0 3.0 11 ------- null}
+ -t 0.366 -s 2 -d 3 -p cbr -e 500 -c 0 -i 11 -a 0 -x {1.0 3.0 11 ------- null}
- -t 0.372 -s 2 -d 3 -p cbr -e 500 -c 0 -i 11 -a 0 -x {1.0 3.0 11 ------- null}
h -t 0.372 -s 2 -d 3 -p cbr -e 500 -c 0 -i 11 -a 0 -x {1.0 3.0 -1 ------- null}
r -t 0.382 -s 2 -d 3 -p cbr -e 1000 -c 0 -i 10 -a 0 -x {1.0 3.0 10 ------- null}
r -t 0.386 -s 2 -d 3 -p cbr -e 500 -c 0 -i 11 -a 0 -x {1.0 3.0 11 ------- null}
+ -t 0.4 -s 1 -d 2 -p cbr -e 1000 -c 0 -i 12 -a 0 -x {1.0 3.0 12 ------- null}
- -t 0.4 -s 1 -d 2 -p cbr -e 1000 -c 0 -i 12 -a 0 -x {1.0 3.0 12 ------- null}
h -t 0.4 -s 1 -d 2 -p cbr -e 1000 -c 0 -i 12 -a 0 -x {1.0 3.0 -1 ------- null}
+ -t 0.4 -s 1 -d 2 -p cbr -e 500 -c 0 -i 13 -a 0 -x {1.0 3.0 13 ------- null}
- -t 0.404 -s 1 -d 2 -p cbr -e 500 -c 0 -i 13 -a 0 -x {1.0 3.0 13 ------- null}
h -t 0.404 -s 1 -d 2 -p cbr -e 500 -c 0 -i 13 -a 0 -x {1.0 3.0 -1 ------- null}
r -t 0.414 -s 1 -d 2 -p cbr -e 1000 -c 0 -i 12 -a 0 -x {1.0 3.0 12 ------- null}
+ -t 0.414 -s 2 -d 3 -p cbr -e 1000 -c 0 -i 12 -a 0 -x {1.0 3.0 12 ------- null}
- -t 0.414 -s 2 -d 3 -p cbr -e 1000 -c 0 -i 12 -a 0 -x {1.0 3.0 12 ------- null}
h -t 0.414 -s 2 -d 3 -p cbr -e 1000 -c 0 -i 12 -a 0 -x {1.0 3.0 -1 ------- null}
r -t 0.416 -s 1 -d 2 -p cbr -e 500 -c 0 -i 13 -a 0 -x {1.0 3.0 13 ------- null}
+ -t 0.416 -s 2 -d 3 -p cbr -e 500 -c 0 -i 13 -a 0 -x {1.0 3.0 13 ------- null}
- -t 0.422 -s 2 -d 3 -p cbr -e 500 -c 0 -i 13 -a 0 -x {1.0 3.0 13 ------- null}
h -t 0.422 -s 2 -d 3 -p cbr -e 500 -c 0 -i 13 -a 0 -x {1.0 3.0 -1 ------- null}
r -t 0.432 -s 2 -d 3 -p cbr -e 1000 -c 0 -i 12 -a 0 -x {1.0 3.0 12 ------- null}
r -t 0.436 -s 2 -d 3 -p cbr -e 500 -c 0 -i 13 -a 0 -x {1.0 3.0 13 ------- null}
+ -t 0.45 -s 1 -d 2 -p cbr -e 1000 -c 0 -i 14 -a 0 -x {1.0 3.0 14 ------- null}
- -t 0.45 -s 1 -d 2 -p cbr -e 1000 -c 0 -i 14 -a 0 -x {1.0 3.0 14 ------- null}
h -t 0.45 -s 1 -d 2 -p cbr -e 1000 -c 0 -i 14 -a 0 -x {1.0 3.0 -1 ------- null}
+ -t 0.45 -s 1 -d 2 -p cbr -e 500 -c 0 -i 15 -a 0 -x {1.0 3.0 15 ------- null}
- -t 0.454 -s 1 -d 2 -p cbr -e 500 -c 0 -i 15 -a 0 -x {1.0 3.0 15 ------- null}
h -t 0.454 -s 1 -d 2 -p cbr -e 500 -c 0 -i 15 -a 0 -x {1.0 3.0 -1 ------- null}
r -t 0.464 -s 1 -d 2 -p cbr -e 1000 -c 0 -i 14 -a 0 -x {1.0 3.0 14 ------- null}
+ -t 0.464 -s 2 -d 3 -p cbr -e 1000 -c 0 -i 14 -a 0 -x {1.0 3.0 14 ------- null}
- -t 0.464 -s 2 -d 3 -p cbr -e 1000 -c 0 -i 14 -a 0 -x {1.0 3.0 14 ------- null}
h -t 0.464 -s 2 -d 3 -p cbr -e 1000 -c 0 -i 14 -a 0 -x {1.0 3.0 -1 ------- null}
r -t 0.466 -s 1 -d 2 -p cbr -e 500 -c 0 -i 15 -a 0 -x {1.0 3.0 15 ------- null}
+ -t 0.466 -s 2 -d 3 -p cbr -e 500 -c 0 -i 15 -a 0 -x {1.0 3.0 15 ------- null}
- -t 0.472 -s 2 -d 3 -p cbr -e 500 -c 0 -i 15 -a 0 -x {1.0 3.0 15 ------- null}
h -t 0.472 -s 2 -d 3 -p cbr -e 500 -c 0 -i 15 -a 0 -x {1.0 3.0 -1 ------- null}
r -t 0.482 -s 2 -d 3 -p cbr -e 1000 -c 0 -i 14 -a 0 -x {1.0 3.0 14 ------- null}
r -t 0.486 -s 2 -d 3 -p cbr -e 500 -c 0 -i 15 -a 0 -x {1.0 3.0 15 ------- null}
+ -t 0.5 -s 1 -d 2 -p cbr -e 1000 -c 0 -i 16 -a 0 -x {1.0 3.0 16 ------- null}
- -t 0.5 -s 1 -d 2 -p cbr -e 1000 -c 0 -i 16 -a 0 -x {1.0 3.0 16 ------- null}
h -t 0.5 -s 1 -d 2 -p cbr -e 1000 -c 0 -i 16 -a 0 -x {1.0 3.0 -1 ------- null}
+ -t 0.5 -s 1 -d 2 -p cbr -e 500 -c 0 -i 17 -a 0 -x {1.0 3.0 17 ------- null}
- -t 0.504 -s 1 -d 2 -p cbr -e 500 -c 0 -i 17 -a 0 -x {1.0 3.0 17 ------- null}
h -t 0.504 -s 1 -d 2 -p cbr -e 500 -c 0 -i 17 -a 0 -x {1.0 3.0 -1 ------- null}
r -t 0.514 -s 1 -d 2 -p cbr -e 1000 -c 0 -i 16 -a 0 -x {1.0 3.0 16 ------- null}
+ -t 0.514 -s 2 -d 3 -p cbr -e 1000 -c 0 -i 16 -a 0 -x {1.0 3.0 16 ------- null}
- -t 0.514 -s 2 -d 3 -p cbr -e 1000 -c 0 -i 16 -a 0 -x {1.0 3.0 16 ------- null}
h -t 0.514 -s 2 -d 3 -p cbr -e 1000 -c 0 -i 16 -a 0 -x {1.0 3.0 -1 ------- null}
r -t 0.516 -s 1 -d 2 -p cbr -e 500 -c 0 -i 17 -a 0 -x {1.0 3.0 17 ------- null}
+ -t 0.516 -s 2 -d 3 -p cbr -e 500 -c 0 -i 17 -a 0 -x {1.0 3.0 17 ------- null}
- -t 0.522 -s 2 -d 3 -p cbr -e 500 -c 0 -i 17 -a 0 -x {1.0 3.0 17 ------- null}
h -t 0.522 -s 2 -d 3 -p cbr -e 500 -c 0 -i 17 -a 0 -x {1.0 3.0 -1 ------- null}
r -t 0.532 -s 2 -d 3 -p cbr -e 1000 -c 0 -i 16 -a 0 -x {1.0 3.0 16 ------- null}
r -t 0.536 -s 2 -d 3 -p cbr -e 500 -c 0 -i 17 -a 0 -x {1.0 3.0 17 ------- null}
+ -t 0.55 -s 1 -d 2 -p cbr -e 1000 -c 0 -i 18 -a 0 -x {1.0 3.0 18 ------- null}
- -t 0.55 -s 1 -d 2 -p cbr -e 1000 -c 0 -i 18 -a 0 -x {1.0 3.0 18 ------- null}
h -t 0.55 -s 1 -d 2 -p cbr -e 1000 -c 0 -i 18 -a 0 -x {1.0 3.0 -1 ------- null}
+ -t 0.55 -s 1 -d 2 -p cbr -e 500 -c 0 -i 19 -a 0 -x {1.0 3.0 19 ------- null}
- -t 0.554 -s 1 -d 2 -p cbr -e 500 -c 0 -i 19 -a 0 -x {1.0 3.0 19 ------- null}
h -t 0.554 -s 1 -d 2 -p cbr -e 500 -c 0 -i 19 -a 0 -x {1.0 3.0 -1 ------- null}
r -t 0.564 -s 1 -d 2 -p cbr -e 1000 -c 0 -i 18 -a 0 -x {1.0 3.0 18 ------- null}
+ -t 0.564 -s 2 -d 3 -p cbr -e 1000 -c 0 -i 18 -a 0 -x {1.0 3.0 18 ------- null}
- -t 0.564 -s 2 -d 3 -p cbr -e 1000 -c 0 -i 18 -a 0 -x {1.0 3.0 18 ------- null}
h -t 0.564 -s 2 -d 3 -p cbr -e 1000 -c 0 -i 18 -a 0 -x {1.0 3.0 -1 ------- null}
r -t 0.566 -s 1 -d 2 -p cbr -e 500 -c 0 -i 19 -a 0 -x {1.0 3.0 19 ------- null}
+ -t 0.566 -s 2 -d 3 -p cbr -e 500 -c 0 -i 19 -a 0 -x {1.0 3.0 19 ------- null}
- -t 0.572 -s 2 -d 3 -p cbr -e 500 -c 0 -i 19 -a 0 -x {1.0 3.0 19 ------- null}
h -t 0.572 -s 2 -d 3 -p cbr -e 500 -c 0 -i 19 -a 0 -x {1.0 3.0 -1 ------- null}
r -t 0.582 -s 2 -d 3 -p cbr -e 1000 -c 0 -i 18 -a 0 -x {1.0 3.0 18 ------- null}
r -t 0.586 -s 2 -d 3 -p cbr -e 500 -c 0 -i 19 -a 0 -x {1.0 3.0 19 ------- null}
+ -t 0.6 -s 1 -d 2 -p cbr -e 1000 -c 0 -i 20 -a 0 -x {1.0 3.0 20 ------- null}
- -t 0.6 -s 1 -d 2 -p cbr -e 1000 -c 0 -i 20 -a 0 -x {1.0 3.0 20 ------- null}
h -t 0.6 -s 1 -d 2 -p cbr -e 1000 -c 0 -i 20 -a 0 -x {1.0 3.0 -1 ------- null}
+ -t 0.6 -s 1 -d 2 -p cbr -e 500 -c 0 -i 21 -a 0 -x {1.0 3.0 21 ------- null}
- -t 0.604 -s 1 -d 2 -p cbr -e 500 -c 0 -i 21 -a 0 -x {1.0 3.0 21 ------- null}
h -t 0.604 -s 1 -d 2 -p cbr -e 500 -c 0 -i 21 -a 0 -x {1.0 3.0 -1 ------- null}
r -t 0.614 -s 1 -d 2 -p cbr -e 1000 -c 0 -i 20 -a 0 -x {1.0 3.0 20 ------- null}
+ -t 0.614 -s 2 -d 3 -p cbr -e 1000 -c 0 -i 20 -a 0 -x {1.0 3.0 20 ------- null}
- -t 0.614 -s 2 -d 3 -p cbr -e 1000 -c 0 -i 20 -a 0 -x {1.0 3.0 20 ------- null}
h -t 0.614 -s 2 -d 3 -p cbr -e 1000 -c 0 -i 20 -a 0 -x {1.0 3.0 -1 ------- null}
r -t 0.616 -s 1 -d 2 -p cbr -e 500 -c 0 -i 21 -a 0 -x {1.0 3.0 21 ------- null}
+ -t 0.616 -s 2 -d 3 -p cbr -e 500 -c 0 -i 21 -a 0 -x {1.0 3.0 21 ------- null}
- -t 0.622 -s 2 -d 3 -p cbr -e 500 -c 0 -i 21 -a 0 -x {1.0 3.0 21 ------- null}
h -t 0.622 -s 2 -d 3 -p cbr -e 500 -c 0 -i 21 -a 0 -x {1.0 3.0 -1 ------- null}
r -t 0.632 -s 2 -d 3 -p cbr -e 1000 -c 0 -i 20 -a 0 -x {1.0 3.0 20 ------- null}
r -t 0.636 -s 2 -d 3 -p cbr -e 500 -c 0 -i 21 -a 0 -x {1.0 3.0 21 ------- null}
+ -t 0.65 -s 1 -d 2 -p cbr -e 1000 -c 0 -i 22 -a 0 -x {1.0 3.0 22 ------- null}
- -t 0.65 -s 1 -d 2 -p cbr -e 1000 -c 0 -i 22 -a 0 -x {1.0 3.0 22 ------- null}
h -t 0.65 -s 1 -d 2 -p cbr -e 1000 -c 0 -i 22 -a 0 -x {1.0 3.0 -1 ------- null}
+ -t 0.65 -s 1 -d 2 -p cbr -e 500 -c 0 -i 23 -a 0 -x {1.0 3.0 23 ------- null}
- -t 0.654 -s 1 -d 2 -p cbr -e 500 -c 0 -i 23 -a 0 -x {1.0 3.0 23 ------- null}
h -t 0.654 -s 1 -d 2 -p cbr -e 500 -c 0 -i 23 -a 0 -x {1.0 3.0 -1 ------- null}
r -t 0.664 -s 1 -d 2 -p cbr -e 1000 -c 0 -i 22 -a 0 -x {1.0 3.0 22 ------- null}
+ -t 0.664 -s 2 -d 3 -p cbr -e 1000 -c 0 -i 22 -a 0 -x {1.0 3.0 22 ------- null}
- -t 0.664 -s 2 -d 3 -p cbr -e 1000 -c 0 -i 22 -a 0 -x {1.0 3.0 22 ------- null}
h -t 0.664 -s 2 -d 3 -p cbr -e 1000 -c 0 -i 22 -a 0 -x {1.0 3.0 -1 ------- null}
r -t 0.666 -s 1 -d 2 -p cbr -e 500 -c 0 -i 23 -a 0 -x {1.0 3.0 23 ------- null}
+ -t 0.666 -s 2 -d 3 -p cbr -e 500 -c 0 -i 23 -a 0 -x {1.0 3.0 23 ------- null}
- -t 0.672 -s 2 -d 3 -p cbr -e 500 -c 0 -i 23 -a 0 -x {1.0 3.0 23 ------- null}
h -t 0.672 -s 2 -d 3 -p cbr -e 500 -c 0 -i 23 -a 0 -x {1.0 3.0 -1 ------- null}
r -t 0.682 -s 2 -d 3 -p cbr -e 1000 -c 0 -i 22 -a 0 -x {1.0 3.0 22 ------- null}
r -t 0.686 -s 2 -d 3 -p cbr -e 500 -c 0 -i 23 -a 0 -x {1.0 3.0 23 ------- null}
+ -t 0.7 -s 1 -d 2 -p cbr -e 1000 -c 0 -i 24 -a 0 -x {1.0 3.0 24 ------- null}
- -t 0.7 -s 1 -d 2 -p cbr -e 1000 -c 0 -i 24 -a 0 -x {1.0 3.0 24 ------- null}
h -t 0.7 -s 1 -d 2 -p cbr -e 1000 -c 0 -i 24 -a 0 -x {1.0 3.0 -1 ------- null}
+ -t 0.7 -s 1 -d 2 -p cbr -e 500 -c 0 -i 25 -a 0 -x {1.0 3.0 25 ------- null}
- -t 0.704 -s 1 -d 2 -p cbr -e 500 -c 0 -i 25 -a 0 -x {1.0 3.0 25 ------- null}
h -t 0.704 -s 1 -d 2 -p cbr -e 500 -c 0 -i 25 -a 0 -x {1.0 3.0 -1 ------- null}
r -t 0.714 -s 1 -d 2 -p cbr -e 1000 -c 0 -i 24 -a 0 -x {1.0 3.0 24 ------- null}
+ -t 0.714 -s 2 -d 3 -p cbr -e 1000 -c 0 -i 24 -a 0 -x {1.0 3.0 24 ------- null}
- -t 0.714 -s 2 -d 3 -p cbr -e 1000 -c 0 -i 24 -a 0 -x {1.0 3.0 24 ------- null}
h -t 0.714 -s 2 -d 3 -p cbr -e 1000 -c 0 -i 24 -a 0 -x {1.0 3.0 -1 ------- null}
r -t 0.716 -s 1 -d 2 -p cbr -e 500 -c 0 -i 25 -a 0 -x {1.0 3.0 25 ------- null}
+ -t 0.716 -s 2 -d 3 -p cbr -e 500 -c 0 -i 25 -a 0 -x {1.0 3.0 25 ------- null}
- -t 0.722 -s 2 -d 3 -p cbr -e 500 -c 0 -i 25 -a 0 -x {1.0 3.0 25 ------- null}
h -t 0.722 -s 2 -d 3 -p cbr -e 500 -c 0 -i 25 -a 0 -x {1.0 3.0 -1 ------- null}
r -t 0.732 -s 2 -d 3 -p cbr -e 1000 -c 0 -i 24 -a 0 -x {1.0 3.0 24 ------- null}
r -t 0.736 -s 2 -d 3 -p cbr -e 500 -c 0 -i 25 -a 0 -x {1.0 3.0 25 ------- null}
+ -t 0.75 -s 1 -d 2 -p cbr -e 1000 -c 0 -i 26 -a 0 -x {1.0 3.0 26 ------- null}
- -t 0.75 -s 1 -d 2 -p cbr -e 1000 -c 0 -i 26 -a 0 -x {1.0 3.0 26 ------- null}
h -t 0.75 -s 1 -d 2 -p cbr -e 1000 -c 0 -i 26 -a 0 -x {1.0 3.0 -1 ------- null}
+ -t 0.75 -s 1 -d 2 -p cbr -e 500 -c 0 -i 27 -a 0 -x {1.0 3.0 27 ------- null}
- -t 0.754 -s 1 -d 2 -p cbr -e 500 -c 0 -i 27 -a 0 -x {1.0 3.0 27 ------- null}
h -t 0.754 -s 1 -d 2 -p cbr -e 500 -c 0 -i 27 -a 0 -x {1.0 3.0 -1 ------- null}
r -t 0.764 -s 1 -d 2 -p cbr -e 1000 -c 0 -i 26 -a 0 -x {1.0 3.0 26 ------- null}
+ -t 0.764 -s 2 -d 3 -p cbr -e 1000 -c 0 -i 26 -a 0 -x {1.0 3.0 26 ------- null}
- -t 0.764 -s 2 -d 3 -p cbr -e 1000 -c 0 -i 26 -a 0 -x {1.0 3.0 26 ------- null}
h -t 0.764 -s 2 -d 3 -p cbr -e 1000 -c 0 -i 26 -a 0 -x {1.0 3.0 -1 ------- null}
r -t 0.766 -s 1 -d 2 -p cbr -e 500 -c 0 -i 27 -a 0 -x {1.0 3.0 27 ------- null}
+ -t 0.766 -s 2 -d 3 -p cbr -e 500 -c 0 -i 27 -a 0 -x {1.0 3.0 27 ------- null}
- -t 0.772 -s 2 -d 3 -p cbr -e 500 -c 0 -i 27 -a 0 -x {1.0 3.0 27 ------- null}
h -t 0.772 -s 2 -d 3 -p cbr -e 500 -c 0 -i 27 -a 0 -x {1.0 3.0 -1 ------- null}
r -t 0.782 -s 2 -d 3 -p cbr -e 1000 -c 0 -i 26 -a 0 -x {1.0 3.0 26 ------- null}
r -t 0.786 -s 2 -d 3 -p cbr -e 500 -c 0 -i 27 -a 0 -x {1.0 3.0 27 ------- null}
+ -t 0.8 -s 1 -d 2 -p cbr -e 1000 -c 0 -i 28 -a 0 -x {1.0 3.0 28 ------- null}
- -t 0.8 -s 1 -d 2 -p cbr -e 1000 -c 0 -i 28 -a 0 -x {1.0 3.0 28 ------- null}
h -t 0.8 -s 1 -d 2 -p cbr -e 1000 -c 0 -i 28 -a 0 -x {1.0 3.0 -1 ------- null}
+ -t 0.8 -s 1 -d 2 -p cbr -e 500 -c 0 -i 29 -a 0 -x {1.0 3.0 29 ------- null}
- -t 0.804 -s 1 -d 2 -p cbr -e 500 -c 0 -i 29 -a 0 -x {1.0 3.0 29 ------- null}
h -t 0.804 -s 1 -d 2 -p cbr -e 500 -c 0 -i 29 -a 0 -x {1.0 3.0 -1 ------- null}
r -t 0.814 -s 1 -d 2 -p cbr -e 1000 -c 0 -i 28 -a 0 -x {1.0 3.0 28 ------- null}
+ -t 0.814 -s 2 -d 3 -p cbr -e 1000 -c 0 -i 28 -a 0 -x {1.0 3.0 28 ------- null}
- -t 0.814 -s 2 -d 3 -p cbr -e 1000 -c 0 -i 28 -a 0 -x {1.0 3.0 28 ------- null}
h -t 0.814 -s 2 -d 3 -p cbr -e 1000 -c 0 -i 28 -a 0 -x {1.0 3.0 -1 ------- null}
r -t 0.816 -s 1 -d 2 -p cbr -e 500 -c 0 -i 29 -a 0 -x {1.0 3.0 29 ------- null}
+ -t 0.816 -s 2 -d 3 -p cbr -e 500 -c 0 -i 29 -a 0 -x {1.0 3.0 29 ------- null}
- -t 0.822 -s 2 -d 3 -p cbr -e 500 -c 0 -i 29 -a 0 -x {1.0 3.0 29 ------- null}
h -t 0.822 -s 2 -d 3 -p cbr -e 500 -c 0 -i 29 -a 0 -x {1.0 3.0 -1 ------- null}
r -t 0.832 -s 2 -d 3 -p cbr -e 1000 -c 0 -i 28 -a 0 -x {1.0 3.0 28 ------- null}
r -t 0.836 -s 2 -d 3 -p cbr -e 500 -c 0 -i 29 -a 0 -x {1.0 3.0 29 ------- null}
+ -t 0.85 -s 1 -d 2 -p cbr -e 1000 -c 0 -i 30 -a 0 -x {1.0 3.0 30 ------- null}
- -t 0.85 -s 1 -d 2 -p cbr -e 1000 -c 0 -i 30 -a 0 -x {1.0 3.0 30 ------- null}
h -t 0.85 -s 1 -d 2 -p cbr -e 1000 -c 0 -i 30 -a 0 -x {1.0 3.0 -1 ------- null}
+ -t 0.85 -s 1 -d 2 -p cbr -e 500 -c 0 -i 31 -a 0 -x {1.0 3.0 31 ------- null}
- -t 0.854 -s 1 -d 2 -p cbr -e 500 -c 0 -i 31 -a 0 -x {1.0 3.0 31 ------- null}
h -t 0.854 -s 1 -d 2 -p cbr -e 500 -c 0 -i 31 -a 0 -x {1.0 3.0 -1 ------- null}
r -t 0.864 -s 1 -d 2 -p cbr -e 1000 -c 0 -i 30 -a 0 -x {1.0 3.0 30 ------- null}
+ -t 0.864 -s 2 -d 3 -p cbr -e 1000 -c 0 -i 30 -a 0 -x {1.0 3.0 30 ------- null}
- -t 0.864 -s 2 -d 3 -p cbr -e 1000 -c 0 -i 30 -a 0 -x {1.0 3.0 30 ------- null}
h -t 0.864 -s 2 -d 3 -p cbr -e 1000 -c 0 -i 30 -a 0 -x {1.0 3.0 -1 ------- null}
r -t 0.866 -s 1 -d 2 -p cbr -e 500 -c 0 -i 31 -a 0 -x {1.0 3.0 31 ------- null}
+ -t 0.866 -s 2 -d 3 -p cbr -e 500 -c 0 -i 31 -a 0 -x {1.0 3.0 31 ------- null}
- -t 0.872 -s 2 -d 3 -p cbr -e 500 -c 0 -i 31 -a 0 -x {1.0 3.0 31 ------- null}
h -t 0.872 -s 2 -d 3 -p cbr -e 500 -c 0 -i 31 -a 0 -x {1.0 3.0 -1 ------- null}
r -t 0.882 -s 2 -d 3 -p cbr -e 1000 -c 0 -i 30 -a 0 -x {1.0 3.0 30 ------- null}
r -t 0.886 -s 2 -d 3 -p cbr -e 500 -c 0 -i 31 -a 0 -x {1.0 3.0 31 ------- null}
+ -t 0.9 -s 1 -d 2 -p cbr -e 1000 -c 0 -i 32 -a 0 -x {1.0 3.0 32 ------- null}
- -t 0.9 -s 1 -d 2 -p cbr -e 1000 -c 0 -i 32 -a 0 -x {1.0 3.0 32 ------- null}
h -t 0.9 -s 1 -d 2 -p cbr -e 1000 -c 0 -i 32 -a 0 -x {1.0 3.0 -1 ------- null}
+ -t 0.9 -s 1 -d 2 -p cbr -e 500 -c 0 -i 33 -a 0 -x {1.0 3.0 33 ------- null}
- -t 0.904 -s 1 -d 2 -p cbr -e 500 -c 0 -i 33 -a 0 -x {1.0 3.0 33 ------- null}
h -t 0.904 -s 1 -d 2 -p cbr -e 500 -c 0 -i 33 -a 0 -x {1.0 3.0 -1 ------- null}
r -t 0.914 -s 1 -d 2 -p cbr -e 1000 -c 0 -i 32 -a 0 -x {1.0 3.0 32 ------- null}
+ -t 0.914 -s 2 -d 3 -p cbr -e 1000 -c 0 -i 32 -a 0 -x {1.0 3.0 32 ------- null}
- -t 0.914 -s 2 -d 3 -p cbr -e 1000 -c 0 -i 32 -a 0 -x {1.0 3.0 32 ------- null}
h -t 0.914 -s 2 -d 3 -p cbr -e 1000 -c 0 -i 32 -a 0 -x {1.0 3.0 -1 ------- null}
r -t 0.916 -s 1 -d 2 -p cbr -e 500 -c 0 -i 33 -a 0 -x {1.0 3.0 33 ------- null}
+ -t 0.916 -s 2 -d 3 -p cbr -e 500 -c 0 -i 33 -a 0 -x {1.0 3.0 33 ------- null}
- -t 0.922 -s 2 -d 3 -p cbr -e 500 -c 0 -i 33 -a 0 -x {1.0 3.0 33 ------- null}
h -t 0.922 -s 2 -d 3 -p cbr -e 500 -c 0 -i 33 -a 0 -x {1.0 3.0 -1 ------- null}
r -t 0.932 -s 2 -d 3 -p cbr -e 1000 -c 0 -i 32 -a 0 -x {1.0 3.0 32 ------- null}
r -t 0.936 -s 2 -d 3 -p cbr -e 500 -c 0 -i 33 -a 0 -x {1.0 3.0 33 ------- null}
+ -t 0.95 -s 1 -d 2 -p cbr -e 1000 -c 0 -i 34 -a 0 -x {1.0 3.0 34 ------- null}
- -t 0.95 -s 1 -d 2 -p cbr -e 1000 -c 0 -i 34 -a 0 -x {1.0 3.0 34 ------- null}
h -t 0.95 -s 1 -d 2 -p cbr -e 1000 -c 0 -i 34 -a 0 -x {1.0 3.0 -1 ------- null}
+ -t 0.95 -s 1 -d 2 -p cbr -e 500 -c 0 -i 35 -a 0 -x {1.0 3.0 35 ------- null}
- -t 0.954 -s 1 -d 2 -p cbr -e 500 -c 0 -i 35 -a 0 -x {1.0 3.0 35 ------- null}
h -t 0.954 -s 1 -d 2 -p cbr -e 500 -c 0 -i 35 -a 0 -x {1.0 3.0 -1 ------- null}
r -t 0.964 -s 1 -d 2 -p cbr -e 1000 -c 0 -i 34 -a 0 -x {1.0 3.0 34 ------- null}
+ -t 0.964 -s 2 -d 3 -p cbr -e 1000 -c 0 -i 34 -a 0 -x {1.0 3.0 34 ------- null}
- -t 0.964 -s 2 -d 3 -p cbr -e 1000 -c 0 -i 34 -a 0 -x {1.0 3.0 34 ------- null}
h -t 0.964 -s 2 -d 3 -p cbr -e 1000 -c 0 -i 34 -a 0 -x {1.0 3.0 -1 ------- null}
r -t 0.966 -s 1 -d 2 -p cbr -e 500 -c 0 -i 35 -a 0 -x {1.0 3.0 35 ------- null}
+ -t 0.966 -s 2 -d 3 -p cbr -e 500 -c 0 -i 35 -a 0 -x {1.0 3.0 35 ------- null}
- -t 0.972 -s 2 -d 3 -p cbr -e 500 -c 0 -i 35 -a 0 -x {1.0 3.0 35 ------- null}
h -t 0.972 -s 2 -d 3 -p cbr -e 500 -c 0 -i 35 -a 0 -x {1.0 3.0 -1 ------- null}
r -t 0.982 -s 2 -d 3 -p cbr -e 1000 -c 0 -i 34 -a 0 -x {1.0 3.0 34 ------- null}
r -t 0.986 -s 2 -d 3 -p cbr -e 500 -c 0 -i 35 -a 0 -x {1.0 3.0 35 ------- null}
+ -t 1 -s 0 -d 2 -p tcp -e 40 -c 1 -i 36 -a 1 -x {0.0 3.1 0 ------- null}
- -t 1 -s 0 -d 2 -p tcp -e 40 -c 1 -i 36 -a 1 -x {0.0 3.1 0 ------- null}
h -t 1 -s 0 -d 2 -p tcp -e 40 -c 1 -i 36 -a 1 -x {0.0 3.1 -1 ------- null}
+ -t 1 -s 1 -d 2 -p cbr -e 1000 -c 0 -i 37 -a 0 -x {1.0 3.0 36 ------- null}
- -t 1 -s 1 -d 2 -p cbr -e 1000 -c 0 -i 37 -a 0 -x {1.0 3.0 36 ------- null}
h -t 1 -s 1 -d 2 -p cbr -e 1000 -c 0 -i 37 -a 0 -x {1.0 3.0 -1 ------- null}
+ -t 1 -s 1 -d 2 -p cbr -e 500 -c 0 -i 38 -a 0 -x {1.0 3.0 37 ------- null}
- -t 1.004 -s 1 -d 2 -p cbr -e 500 -c 0 -i 38 -a 0 -x {1.0 3.0 37 ------- null}
h -t 1.004 -s 1 -d 2 -p cbr -e 500 -c 0 -i 38 -a 0 -x {1.0 3.0 -1 ------- null}
r -t 1.01016 -s 0 -d 2 -p tcp -e 40 -c 1 -i 36 -a 1 -x {0.0 3.1 0 ------- null}
+ -t 1.01016 -s 2 -d 3 -p tcp -e 40 -c 1 -i 36 -a 1 -x {0.0 3.1 0 ------- null}
- -t 1.01016 -s 2 -d 3 -p tcp -e 40 -c 1 -i 36 -a 1 -x {0.0 3.1 0 ------- null}
h -t 1.01016 -s 2 -d 3 -p tcp -e 40 -c 1 -i 36 -a 1 -x {0.0 3.1 -1 ------- null}
r -t 1.014 -s 1 -d 2 -p cbr -e 1000 -c 0 -i 37 -a 0 -x {1.0 3.0 36 ------- null}
+ -t 1.014 -s 2 -d 3 -p cbr -e 1000 -c 0 -i 37 -a 0 -x {1.0 3.0 36 ------- null}
- -t 1.014 -s 2 -d 3 -p cbr -e 1000 -c 0 -i 37 -a 0 -x {1.0 3.0 36 ------- null}
h -t 1.014 -s 2 -d 3 -p cbr -e 1000 -c 0 -i 37 -a 0 -x {1.0 3.0 -1 ------- null}
r -t 1.016 -s 1 -d 2 -p cbr -e 500 -c 0 -i 38 -a 0 -x {1.0 3.0 37 ------- null}
+ -t 1.016 -s 2 -d 3 -p cbr -e 500 -c 0 -i 38 -a 0 -x {1.0 3.0 37 ------- null}
r -t 1.02048 -s 2 -d 3 -p tcp -e 40 -c 1 -i 36 -a 1 -x {0.0 3.1 0 ------- null}
+ -t 1.02048 -s 3 -d 2 -p ack -e 40 -c 1 -i 39 -a 1 -x {3.1 0.0 0 ------- null}
- -t 1.02048 -s 3 -d 2 -p ack -e 40 -c 1 -i 39 -a 1 -x {3.1 0.0 0 ------- null}
h -t 1.02048 -s 3 -d 2 -p ack -e 40 -c 1 -i 39 -a 1 -x {3.1 0.0 -1 ------- null}
- -t 1.022 -s 2 -d 3 -p cbr -e 500 -c 0 -i 38 -a 0 -x {1.0 3.0 37 ------- null}
h -t 1.022 -s 2 -d 3 -p cbr -e 500 -c 0 -i 38 -a 0 -x {1.0 3.0 -1 ------- null}
r -t 1.0308 -s 3 -d 2 -p ack -e 40 -c 1 -i 39 -a 1 -x {3.1 0.0 0 ------- null}
+ -t 1.0308 -s 2 -d 0 -p ack -e 40 -c 1 -i 39 -a 1 -x {3.1 0.0 0 ------- null}
- -t 1.0308 -s 2 -d 0 -p ack -e 40 -c 1 -i 39 -a 1 -x {3.1 0.0 0 ------- null}
h -t 1.0308 -s 2 -d 0 -p ack -e 40 -c 1 -i 39 -a 1 -x {3.1 0.0 -1 ------- null}
r -t 1.032 -s 2 -d 3 -p cbr -e 1000 -c 0 -i 37 -a 0 -x {1.0 3.0 36 ------- null}
r -t 1.036 -s 2 -d 3 -p cbr -e 500 -c 0 -i 38 -a 0 -x {1.0 3.0 37 ------- null}
r -t 1.04096 -s 2 -d 0 -p ack -e 40 -c 1 -i 39 -a 1 -x {3.1 0.0 0 ------- null}
+ -t 1.04096 -s 0 -d 2 -p tcp -e 1040 -c 1 -i 40 -a 1 -x {0.0 3.1 1 ------- null}
- -t 1.04096 -s 0 -d 2 -p tcp -e 1040 -c 1 -i 40 -a 1 -x {0.0 3.1 1 ------- null}
h -t 1.04096 -s 0 -d 2 -p tcp -e 1040 -c 1 -i 40 -a 1 -x {0.0 3.1 -1 ------- null}
+ -t 1.04096 -s 0 -d 2 -p tcp -e 1040 -c 1 -i 41 -a 1 -x {0.0 3.1 2 ------- null}
- -t 1.04512 -s 0 -d 2 -p tcp -e 1040 -c 1 -i 41 -a 1 -x {0.0 3.1 2 ------- null}
h -t 1.04512 -s 0 -d 2 -p tcp -e 1040 -c 1 -i 41 -a 1 -x {0.0 3.1 -1 ------- null}
+ -t 1.05 -s 1 -d 2 -p cbr -e 1000 -c 0 -i 42 -a 0 -x {1.0 3.0 38 ------- null}
- -t 1.05 -s 1 -d 2 -p cbr -e 1000 -c 0 -i 42 -a 0 -x {1.0 3.0 38 ------- null}
h -t 1.05 -s 1 -d 2 -p cbr -e 1000 -c 0 -i 42 -a 0 -x {1.0 3.0 -1 ------- null}
+ -t 1.05 -s 1 -d 2 -p cbr -e 500 -c 0 -i 43 -a 0 -x {1.0 3.0 39 ------- null}
- -t 1.054 -s 1 -d 2 -p cbr -e 500 -c 0 -i 43 -a 0 -x {1.0 3.0 39 ------- null}
h -t 1.054 -s 1 -d 2 -p cbr -e 500 -c 0 -i 43 -a 0 -x {1.0 3.0 -1 ------- null}
r -t 1.05512 -s 0 -d 2 -p tcp -e 1040 -c 1 -i 40 -a 1 -x {0.0 3.1 1 ------- null}
+ -t 1.05512 -s 2 -d 3 -p tcp -e 1040 -c 1 -i 40 -a 1 -x {0.0 3.1 1 ------- null}
- -t 1.05512 -s 2 -d 3 -p tcp -e 1040 -c 1 -i 40 -a 1 -x {0.0 3.1 1 ------- null}
h -t 1.05512 -s 2 -d 3 -p tcp -e 1040 -c 1 -i 40 -a 1 -x {0.0 3.1 -1 ------- null}
r -t 1.05928 -s 0 -d 2 -p tcp -e 1040 -c 1 -i 41 -a 1 -x {0.0 3.1 2 ------- null}
+ -t 1.05928 -s 2 -d 3 -p tcp -e 1040 -c 1 -i 41 -a 1 -x {0.0 3.1 2 ------- null}
- -t 1.06344 -s 2 -d 3 -p tcp -e 1040 -c 1 -i 41 -a 1 -x {0.0 3.1 2 ------- null}
h -t 1.06344 -s 2 -d 3 -p tcp -e 1040 -c 1 -i 41 -a 1 -x {0.0 3.1 -1 ------- null}
r -t 1.064 -s 1 -d 2 -p cbr -e 1000 -c 0 -i 42 -a 0 -x {1.0 3.0 38 ------- null}
+ -t 1.064 -s 2 -d 3 -p cbr -e 1000 -c 0 -i 42 -a 0 -x {1.0 3.0 38 ------- null}
r -t 1.066 -s 1 -d 2 -p cbr -e 500 -c 0 -i 43 -a 0 -x {1.0 3.0 39 ------- null}
+ -t 1.066 -s 2 -d 3 -p cbr -e 500 -c 0 -i 43 -a 0 -x {1.0 3.0 39 ------- null}
- -t 1.07176 -s 2 -d 3 -p cbr -e 1000 -c 0 -i 42 -a 0 -x {1.0 3.0 38 ------- null}
h -t 1.07176 -s 2 -d 3 -p cbr -e 1000 -c 0 -i 42 -a 0 -x {1.0 3.0 -1 ------- null}
r -t 1.07344 -s 2 -d 3 -p tcp -e 1040 -c 1 -i 40 -a 1 -x {0.0 3.1 1 ------- null}
+ -t 1.07344 -s 3 -d 2 -p ack -e 40 -c 1 -i 44 -a 1 -x {3.1 0.0 1 ------- null}
- -t 1.07344 -s 3 -d 2 -p ack -e 40 -c 1 -i 44 -a 1 -x {3.1 0.0 1 ------- null}
h -t 1.07344 -s 3 -d 2 -p ack -e 40 -c 1 -i 44 -a 1 -x {3.1 0.0 -1 ------- null}
- -t 1.07976 -s 2 -d 3 -p cbr -e 500 -c 0 -i 43 -a 0 -x {1.0 3.0 39 ------- null}
h -t 1.07976 -s 2 -d 3 -p cbr -e 500 -c 0 -i 43 -a 0 -x {1.0 3.0 -1 ------- null}
r -t 1.08176 -s 2 -d 3 -p tcp -e 1040 -c 1 -i 41 -a 1 -x {0.0 3.1 2 ------- null}
+ -t 1.08176 -s 3 -d 2 -p ack -e 40 -c 1 -i 45 -a 1 -x {3.1 0.0 2 ------- null}
- -t 1.08176 -s 3 -d 2 -p ack -e 40 -c 1 -i 45 -a 1 -x {3.1 0.0 2 ------- null}
h -t 1.08176 -s 3 -d 2 -p ack -e 40 -c 1 -i 45 -a 1 -x {3.1 0.0 -1 ------- null}
r -t 1.08376 -s 3 -d 2 -p ack -e 40 -c 1 -i 44 -a 1 -x {3.1 0.0 1 ------- null}
+ -t 1.08376 -s 2 -d 0 -p ack -e 40 -c 1 -i 44 -a 1 -x {3.1 0.0 1 ------- null}
- -t 1.08376 -s 2 -d 0 -p ack -e 40 -c 1 -i 44 -a 1 -x {3.1 0.0 1 ------- null}
h -t 1.08376 -s 2 -d 0 -p ack -e 40 -c 1 -i 44 -a 1 -x {3.1 0.0 -1 ------- null}
r -t 1.08976 -s 2 -d 3 -p cbr -e 1000 -c 0 -i 42 -a 0 -x {1.0 3.0 38 ------- null}
r -t 1.09208 -s 3 -d 2 -p ack -e 40 -c 1 -i 45 -a 1 -x {3.1 0.0 2 ------- null}
+ -t 1.09208 -s 2 -d 0 -p ack -e 40 -c 1 -i 45 -a 1 -x {3.1 0.0 2 ------- null}
- -t 1.09208 -s 2 -d 0 -p ack -e 40 -c 1 -i 45 -a 1 -x {3.1 0.0 2 ------- null}
h -t 1.09208 -s 2 -d 0 -p ack -e 40 -c 1 -i 45 -a 1 -x {3.1 0.0 -1 ------- null}
r -t 1.09376 -s 2 -d 3 -p cbr -e 500 -c 0 -i 43 -a 0 -x {1.0 3.0 39 ------- null}
r -t 1.09392 -s 2 -d 0 -p ack -e 40 -c 1 -i 44 -a 1 -x {3.1 0.0 1 ------- null}