+ 0.1 1 2 cbr 1000 ------- 0 1.0 3.0 0 0
- 0.1 1 2 cbr 1000 ------- 0 1.0 3.0 0 0
+ 0.1 1 2 cbr 500 ------- 0 1.0 3.0 1 1
- 0.104 1 2 cbr 500 ------- 0 1.0 3.0 1 1
r 0.114 1 2 cbr 1000 ------- 0 1.0 3.0 0 0
+ 0.114 2 3 cbr 1000 ------- 0 1.0 3.0 0 0
- 0.114 2 3 cbr 1000 ------- 0 1.0 3.0 0 0
r 0.116 1 2 cbr 500 ------- 0 1.0 3.0 1 1
+ 0.116 2 3 cbr 500 ------- 0 1.0 3.0 1 1
- 0.122 2 3 cbr 500 ------- 0 1.0 3.0 1 1
r 0.132 2 3 cbr 1000 ------- 0 1.0 3.0 0 0
r 0.136 2 3 cbr 500 ------- 0 1.0 3.0 1 1
+ 0.15 1 2 cbr 1000 ------- 0 1.0 3.0 2 2
- 0.15 1 2 cbr 1000 ------- 0 1.0 3.0 2 2
+ 0.15 1 2 cbr 500 ------- 0 1.0 3.0 3 3
- 0.154 1 2 cbr 500 ------- 0 1.0 3.0 3 3
r 0.164 1 2 cbr 1000 ------- 0 1.0 3.0 2 2
+ 0.164 2 3 cbr 1000 ------- 0 1.0 3.0 2 2
- 0.164 2 3 cbr 1000 ------- 0 1.0 3.0 2 2
r 0.166 1 2 cbr 500 ------- 0 1.0 3.0 3 3
+ 0.166 2 3 cbr 500 ------- 0 1.0 3.0 3 3
- 0.172 2 3 cbr 500 ------- 0 1.0 3.0 3 3
r 0.182 2 3 cbr 1000 ------- 0 1.0 3.0 2 2
r 0.186 2 3 cbr 500 ------- 0 1.0 3.0 3 3
+ 0.2 1 2 cbr 1000 ------- 0 1.0 3.0 4 4
- 0.2 1 2 cbr 1000 ------- 0 1.0 3.0 4 4
+ 0.2 1 2 cbr 500 ------- 0 1.0 3.0 5 5
- 0.204 1 2 cbr 500 ------- 0 1.0 3.0 5 5
r 0.214 1 2 cbr 1000 ------- 0 1.0 3.0 4 4
+ 0.214 2 3 cbr 1000 ------- 0 1.0 3.0 4 4
- 0.214 2 3 cbr 1000 ------- 0 1.0 3.0 4 4
r 0.216 1 2 cbr 500 ------- 0 1.0 3.0 5 5
+ 0.216 2 3 cbr 500 ------- 0 1.0 3.0 5 5
- 0.222 2 3 cbr 500 ------- 0 1.0 3.0 5 5
r 0.232 2 3 cbr 1000 ------- 0 1.0 3.0 4 4
r 0.236 2 3 cbr 500 ------- 0 1.0 3.0 5 5
+ 0.25 1 2 cbr 1000 ------- 0 1.0 3.0 6 6
- 0.25 1 2 cbr 1000 ------- 0 1.0 3.0 6 6
+ 0.25 1 2 cbr 500 ------- 0 1.0 3.0 7 7
- 0.254 1 2 cbr 500 ------- 0 1.0 3.0 7 7
r 0.264 1 2 cbr 1000 ------- 0 1.0 3.0 6 6
+ 0.264 2 3 cbr 1000 ------- 0 1.0 3.0 6 6
- 0.264 2 3 cbr 1000 ------- 0 1.0 3.0 6 6
r 0.266 1 2 cbr 500 ------- 0 1.0 3.0 7 7
+ 0.266 2 3 cbr 500 ------- 0 1.0 3.0 7 7
- 0.272 2 3 cbr 500 ------- 0 1.0 3.0 7 7
r 0.282 2 3 cbr 1000 ------- 0 1.0 3.0 6 6
r 0.286 2 3 cbr 500 ------- 0 1.0 3.0 7 7
+ 0.3 1 2 cbr 1000 ------- 0 1.0 3.0 8 8
- 0.3 1 2 cbr 1000 ------- 0 1.0 3.0 8 8
+ 0.3 1 2 cbr 500 ------- 0 1.0 3.0 9 9
- 0.304 1 2 cbr 500 ------- 0 1.0 3.0 9 9
r 0.314 1 2 cbr 1000 ------- 0 1.0 3.0 8 8
+ 0.314 2 3 cbr 1000 ------- 0 1.0 3.0 8 8
- 0.314 2 3 cbr 1000 ------- 0 1.0 3.0 8 8
r 0.316 1 2 cbr 500 ------- 0 1.0 3.0 9 9
+ 0.316 2 3 cbr 500 ------- 0 1.0 3.0 9 9
- 0.322 2 3 cbr 500 ------- 0 1.0 3.0 9 9
r 0.332 2 3 cbr 1000 ------- 0 1.0 3.0 8 8
r 0.336 2 3 cbr 500 ------- 0 1.0 3.0 9 9
+ 0.35 1 2 cbr 1000 ------- 0 1.0 3.0 10 10
- 0.35 1 2 cbr 1000 ------- 0 1.0 3.0 10 10
+ 0.35 1 2 cbr 500 ------- 0 1.0 3.0 11 11
- 0.354 1 2 cbr 500 ------- 0 1.0 3.0 11 11
r 0.364 1 2 cbr 1000 ------- 0 1.0 3.0 10 10
+ 0.364 2 3 cbr 1000 ------- 0 1.0 3.0 10 10
- 0.364 2 3 cbr 1000 ------- 0 1.0 3.0 10 10
r 0.366 1 2 cbr 500 ------- 0 1.0 3.0 11 11
+ 0.366 2 3 cbr 500 ------- 0 1.0 3.0 11 11
- 0.372 2 3 cbr 500 ------- 0 1.0 3.0 11 11
r 0.382 2 3 cbr 1000 ------- 0 1.0 3.0 10 10
r 0.386 2 3 cbr 500 ------- 0 1.0 3.0 11 11
+ 0.4 1 2 cbr 1000 ------- 0 1.0 3.0 12 12
- 0.4 1 2 cbr 1000 ------- 0 1.0 3.0 12 12
+ 0.4 1 2 cbr 500 ------- 0 1.0 3.0 13 13
- 0.404 1 2 cbr 500 ------- 0 1.0 3.0 13 13
r 0.414 1 2 cbr 1000 ------- 0 1.0 3.0 12 12
+ 0.414 2 3 cbr 1000 ------- 0 1.0 3.0 12 12
- 0.414 2 3 cbr 1000 ------- 0 1.0 3.0 12 12
r 0.416 1 2 cbr 500 ------- 0 1.0 3.0 13 13
+ 0.416 2 3 cbr 500 ------- 0 1.0 3.0 13 13
- 0.422 2 3 cbr 500 ------- 0 1.0 3.0 13 13
r 0.432 2 3 cbr 1000 ------- 0 1.0 3.0 12 12
r 0.436 2 3 cbr 500 ------- 0 1.0 3.0 13 13
+ 0.45 1 2 cbr 1000 ------- 0 1.0 3.0 14 14
- 0.45 1 2 cbr 1000 ------- 0 1.0 3.0 14 14
+ 0.45 1 2 cbr 500 ------- 0 1.0 3.0 15 15
- 0.454 1 2 cbr 500 ------- 0 1.0 3.0 15 15
r 0.464 1 2 cbr 1000 ------- 0 1.0 3.0 14 14
+ 0.464 2 3 cbr 1000 ------- 0 1.0 3.0 14 14
- 0.464 2 3 cbr 1000 ------- 0 1.0 3.0 14 14
r 0.466 1 2 cbr 500 ------- 0 1.0 3.0 15 15
+ 0.466 2 3 cbr 500 ------- 0 1.0 3.0 15 15
- 0.472 2 3 cbr 500 ------- 0 1.0 3.0 15 15
r 0.482 2 3 cbr 1000 ------- 0 1.0 3.0 14 14
r 0.486 2 3 cbr 500 ------- 0 1.0 3.0 15 15
+ 0.5 1 2 cbr 1000 ------- 0 1.0 3.0 16 16
- 0.5 1 2 cbr 1000 ------- 0 1.0 3.0 16 16
+ 0.5 1 2 cbr 500 ------- 0 1.0 3.0 17 17
- 0.504 1 2 cbr 500 ------- 0 1.0 3.0 17 17
r 0.514 1 2 cbr 1000 ------- 0 1.0 3.0 16 16
+ 0.514 2 3 cbr 1000 ------- 0 1.0 3.0 16 16
- 0.514 2 3 cbr 1000 ------- 0 1.0 3.0 16 16
r 0.516 1 2 cbr 500 ------- 0 1.0 3.0 17 17
+ 0.516 2 3 cbr 500 ------- 0 1.0 3.0 17 17
- 0.522 2 3 cbr 500 ------- 0 1.0 3.0 17 17
r 0.532 2 3 cbr 1000 ------- 0 1.0 3.0 16 16
r 0.536 2 3 cbr 500 ------- 0 1.0 3.0 17 17
+ 0.55 1 2 cbr 1000 ------- 0 1.0 3.0 18 18
- 0.55 1 2 cbr 1000 ------- 0 1.0 3.0 18 18
+ 0.55 1 2 cbr 500 ------- 0 1.0 3.0 19 19
- 0.554 1 2 cbr 500 ------- 0 1.0 3.0 19 19
r 0.564 1 2 cbr 1000 ------- 0 1.0 3.0 18 18
+ 0.564 2 3 cbr 1000 ------- 0 1.0 3.0 18 18
- 0.564 2 3 cbr 1000 ------- 0 1.0 3.0 18 18
r 0.566 1 2 cbr 500 ------- 0 1.0 3.0 19 19
+ 0.566 2 3 cbr 500 ------- 0 1.0 3.0 19 19
- 0.572 2 3 cbr 500 ------- 0 1.0 3.0 19 19
r 0.582 2 3 cbr 1000 ------- 0 1.0 3.0 18 18
r 0.586 2 3 cbr 500 ------- 0 1.0 3.0 19 19
+ 0.6 1 2 cbr 1000 ------- 0 1.0 3.0 20 20
- 0.6 1 2 cbr 1000 ------- 0 1.0 3.0 20 20
+ 0.6 1 2 cbr 500 ------- 0 1.0 3.0 21 21
- 0.604 1 2 cbr 500 ------- 0 1.0 3.0 21 21
r 0.614 1 2 cbr 1000 ------- 0 1.0 3.0 20 20
+ 0.614 2 3 cbr 1000 ------- 0 1.0 3.0 20 20
- 0.614 2 3 cbr 1000 ------- 0 1.0 3.0 20 20
r 0.616 1 2 cbr 500 ------- 0 1.0 3.0 21 21
+ 0.616 2 3 cbr 500 ------- 0 1.0 3.0 21 21
- 0.622 2 3 cbr 500 ------- 0 1.0 3.0 21 21
r 0.632 2 3 cbr 1000 ------- 0 1.0 3.0 20 20
r 0.636 2 3 cbr 500 ------- 0 1.0 3.0 21 21
+ 0.65 1 2 cbr 1000 ------- 0 1.0 3.0 22 22
- 0.65 1 2 cbr 1000 ------- 0 1.0 3.0 22 22
+ 0.65 1 2 cbr 500 ------- 0 1.0 3.0 23 23
- 0.654 1 2 cbr 500 ------- 0 1.0 3.0 23 23
r 0.664 1 2 cbr 1000 ------- 0 1.0 3.0 22 22
+ 0.664 2 3 cbr 1000 ------- 0 1.0 3.0 22 22
- 0.664 2 3 cbr 1000 ------- 0 1.0 3.0 22 22
r 0.666 1 2 cbr 500 ------- 0 1.0 3.0 23 23
+ 0.666 2 3 cbr 500 ------- 0 1.0 3.0 23 23
- 0.672 2 3 cbr 500 ------- 0 1.0 3.0 23 23
r 0.682 2 3 cbr 1000 ------- 0 1.0 3.0 22 22
r 0.686 2 3 cbr 500 ------- 0 1.0 3.0 23 23
+ 0.7 1 2 cbr 1000 ------- 0 1.0 3.0 24 24
- 0.7 1 2 cbr 1000 ------- 0 1.0 3.0 24 24
+ 0.7 1 2 cbr 500 ------- 0 1.0 3.0 25 25
- 0.704 1 2 cbr 500 ------- 0 1.0 3.0 25 25
r 0.714 1 2 cbr 1000 ------- 0 1.0 3.0 24 24
+ 0.714 2 3 cbr 1000 ------- 0 1.0 3.0 24 24
- 0.714 2 3 cbr 1000 ------- 0 1.0 3.0 24 24
r 0.716 1 2 cbr 500 ------- 0 1.0 3.0 25 25
+ 0.716 2 3 cbr 500 ------- 0 1.0 3.0 25 25
- 0.722 2 3 cbr 500 ------- 0 1.0 3.0 25 25
r 0.732 2 3 cbr 1000 ------- 0 1.0 3.0 24 24
r 0.736 2 3 cbr 500 ------- 0 1.0 3.0 25 25
+ 0.75 1 2 cbr 1000 ------- 0 1.0 3.0 26 26
- 0.75 1 2 cbr 1000 ------- 0 1.0 3.0 26 26
+ 0.75 1 2 cbr 500 ------- 0 1.0 3.0 27 27
- 0.754 1 2 cbr 500 ------- 0 1.0 3.0 27 27
r 0.764 1 2 cbr 1000 ------- 0 1.0 3.0 26 26
+ 0.764 2 3 cbr 1000 ------- 0 1.0 3.0 26 26
- 0.764 2 3 cbr 1000 ------- 0 1.0 3.0 26 26
r 0.766 1 2 cbr 500 ------- 0 1.0 3.0 27 27
+ 0.766 2 3 cbr 500 ------- 0 1.0 3.0 27 27
- 0.772 2 3 cbr 500 ------- 0 1.0 3.0 27 27
r 0.782 2 3 cbr 1000 ------- 0 1.0 3.0 26 26
r 0.786 2 3 cbr 500 ------- 0 1.0 3.0 27 27
+ 0.8 1 2 cbr 1000 ------- 0 1.0 3.0 28 28
- 0.8 1 2 cbr 1000 ------- 0 1.0 3.0 28 28
+ 0.8 1 2 cbr 500 ------- 0 1.0 3.0 29 29
- 0.804 1 2 cbr 500 ------- 0 1.0 3.0 29 29
r 0.814 1 2 cbr 1000 ------- 0 1.0 3.0 28 28
+ 0.814 2 3 cbr 1000 ------- 0 1.0 3.0 28 28
- 0.814 2 3 cbr 1000 ------- 0 1.0 3.0 28 28
r 0.816 1 2 cbr 500 ------- 0 1.0 3.0 29 29
+ 0.816 2 3 cbr 500 ------- 0 1.0 3.0 29 29
- 0.822 2 3 cbr 500 ------- 0 1.0 3.0 29 29
r 0.832 2 3 cbr 1000 ------- 0 1.0 3.0 28 28
r 0.836 2 3 cbr 500 ------- 0 1.0 3.0 29 29
+ 0.85 1 2 cbr 1000 ------- 0 1.0 3.0 30 30
- 0.85 1 2 cbr 1000 ------- 0 1.0 3.0 30 30
+ 0.85 1 2 cbr 500 ------- 0 1.0 3.0 31 31
- 0.854 1 2 cbr 500 ------- 0 1.0 3.0 31 31
r 0.864 1 2 cbr 1000 ------- 0 1.0 3.0 30 30
+ 0.864 2 3 cbr 1000 ------- 0 1.0 3.0 30 30
- 0.864 2 3 cbr 1000 ------- 0 1.0 3.0 30 30
r 0.866 1 2 cbr 500 ------- 0 1.0 3.0 31 31
+ 0.866 2 3 cbr 500 ------- 0 1.0 3.0 31 31
- 0.872 2 3 cbr 500 ------- 0 1.0 3.0 31 31
r 0.882 2 3 cbr 1000 ------- 0 1.0 3.0 30 30
r 0.886 2 3 cbr 500 ------- 0 1.0 3.0 31 31
+ 0.9 1 2 cbr 1000 ------- 0 1.0 3.0 32 32
- 0.9 1 2 cbr 1000 ------- 0 1.0 3.0 32 32
+ 0.9 1 2 cbr 500 ------- 0 1.0 3.0 33 33
- 0.904 1 2 cbr 500 ------- 0 1.0 3.0 33 33
r 0.914 1 2 cbr 1000 ------- 0 1.0 3.0 32 32
+ 0.914 2 3 cbr 1000 ------- 0 1.0 3.0 32 32
- 0.914 2 3 cbr 1000 ------- 0 1.0 3.0 32 32
r 0.916 1 2 cbr 500 ------- 0 1.0 3.0 33 33
+ 0.916 2 3 cbr 500 ------- 0 1.0 3.0 33 33
- 0.922 2 3 cbr 500 ------- 0 1.0 3.0 33 33
r 0.932 2 3 cbr 1000 ------- 0 1.0 3.0 32 32
r 0.936 2 3 cbr 500 ------- 0 1.0 3.0 33 33
+ 0.95 1 2 cbr 1000 ------- 0 1.0 3.0 34 34
- 0.95 1 2 cbr 1000 ------- 0 1.0 3.0 34 34
+ 0.95 1 2 cbr 500 ------- 0 1.0 3.0 35 35
- 0.954 1 2 cbr 500 ------- 0 1.0 3.0 35 35
r 0.964 1 2 cbr 1000 ------- 0 1.0 3.0 34 34
+ 0.964 2 3 cbr 1000 ------- 0 1.0 3.0 34 34
- 0.964 2 3 cbr 1000 ------- 0 1.0 3.0 34 34
r 0.966 1 2 cbr 500 ------- 0 1.0 3.0 35 35
+ 0.966 2 3 cbr 500 ------- 0 1.0 3.0 35 35
- 0.972 2 3 cbr 500 ------- 0 1.0 3.0 35 35
r 0.982 2 3 cbr 1000 ------- 0 1.0 3.0 34 34
r 0.986 2 3 cbr 500 ------- 0 1.0 3.0 35 35
+ 1 0 2 tcp 40 ------- 1 0.0 3.1 0 36
- 1 0 2 tcp 40 ------- 1 0.0 3.1 0 36
+ 1 1 2 cbr 1000 ------- 0 1.0 3.0 36 37
- 1 1 2 cbr 1000 ------- 0 1.0 3.0 36 37
+ 1 1 2 cbr 500 ------- 0 1.0 3.0 37 38
- 1.004 1 2 cbr 500 ------- 0 1.0 3.0 37 38
r 1.01016 0 2 tcp 40 ------- 1 0.0 3.1 0 36
+ 1.01016 2 3 tcp 40 ------- 1 0.0 3.1 0 36
- 1.01016 2 3 tcp 40 ------- 1 0.0 3.1 0 36
r 1.014 1 2 cbr 1000 ------- 0 1.0 3.0 36 37
+ 1.014 2 3 cbr 1000 ------- 0 1.0 3.0 36 37
- 1.014 2 3 cbr 1000 ------- 0 1.0 3.0 36 37
r 1.016 1 2 cbr 500 ------- 0 1.0 3.0 37 38
+ 1.016 2 3 cbr 500 ------- 0 1.0 3.0 37 38
r 1.02048 2 3 tcp 40 ------- 1 0.0 3.1 0 36
+ 1.02048 3 2 ack 40 ------- 1 3.1 0.0 0 39
- 1.02048 3 2 ack 40 ------- 1 3.1 0.0 0 39
- 1.022 2 3 cbr 500 ------- 0 1.0 3.0 37 38
r 1.0308 3 2 ack 40 ------- 1 3.1 0.0 0 39
+ 1.0308 2 0 ack 40 ------- 1 3.1 0.0 0 39
- 1.0308 2 0 ack 40 ------- 1 3.1 0.0 0 39
r 1.032 2 3 cbr 1000 ------- 0 1.0 3.0 36 37
r 1.036 2 3 cbr 500 ------- 0 1.0 3.0 37 38
r 1.04096 2 0 ack 40 ------- 1 3.1 0.0 0 39
+ 1.04096 0 2 tcp 1040 ------- 1 0.0 3.1 1 40
- 1.04096 0 2 tcp 1040 ------- 1 0.0 3.1 1 40
+ 1.04096 0 2 tcp 1040 ------- 1 0.0 3.1 2 41
- 1.04512 0 2 tcp 1040 ------- 1 0.0 3.1 2 41
+ 1.05 1 2 cbr 1000 ------- 0 1.0 3.0 38 42
- 1.05 1 2 cbr 1000 ------- 0 1.0 3.0 38 42
+ 1.05 1 2 cbr 500 ------- 0 1.0 3.0 39 43
- 1.054 1 2 cbr 500 ------- 0 1.0 3.0 39 43
r 1.05512 0 2 tcp 1040 ------- 1 0.0 3.1 1 40
+ 1.05512 2 3 tcp 1040 ------- 1 0.0 3.1 1 40
- 1.05512 2 3 tcp 1040 ------- 1 0.0 3.1 1 40
r 1.05928 0 2 tcp 1040 ------- 1 0.0 3.1 2 41
+ 1.05928 2 3 tcp 1040 ------- 1 0.0 3.1 2 41
- 1.06344 2 3 tcp 1040 ------- 1 0.0 3.1 2 41
r 1.064 1 2 cbr 1000 ------- 0 1.0 3.0 38 42
+ 1.064 2 3 cbr 1000 ------- 0 1.0 3.0 38 42
r 1.066 1 2 cbr 500 ------- 0 1.0 3.0 39 43
+ 1.066 2 3 cbr 500 ------- 0 1.0 3.0 39 43
- 1.07176 2 3 cbr 1000 ------- 0 1.0 3.0 38 42
r 1.07344 2 3 tcp 1040 ------- 1 0.0 3.1 1 40
+ 1.07344 3 2 ack 40 ------- 1 3.1 0.0 1 44
- 1.07344 3 2 ack 40 ------- 1 3.1 0.0 1 44
- 1.07976 2 3 cbr 500 ------- 0 1.0 3.0 39 43
r 1.08176 2 3 tcp 1040 ------- 1 0.0 3.1 2 41
+ 1.08176 3 2 ack 40 ------- 1 3.1 0.0 2 45
- 1.08176 3 2 ack 40 ------- 1 3.1 0.0 2 45
r 1.08376 3 2 ack 40 ------- 1 3.1 0.0 1 44
+ 1.08376 2 0 ack 40 ------- 1 3.1 0.0 1 44
- 1.08376 2 0 ack 40 ------- 1 3.1 0.0 1 44
r 1.08976 2 3 cbr 1000 ------- 0 1.0 3.0 38 42
r 1.09208 3 2 ack 40 ------- 1 3.1 0.0 2 45
+ 1.09208 2 0 ack 40 ------- 1 3.1 0.0 2 45
- 1.09208 2 0 ack 40 ------- 1 3.1 0.0 2 45
r 1.09376 2 3 cbr 500 ------- 0 1.0 3.0 39 43
r 1.09392 2 0 ack 40 ------- 1 3.1 0.0 1 44
+ 1.09392 0 2 tcp 1040 ------- 1 0.0 3.1 3 46
- 1.09392 0 2 tcp 1040 ------- 1 0.0 3.1 3 46
+ 1.09392 0 2 tcp 1040 ------- 1 0.0 3.1 4 47
- 1.09808 0 2 tcp 1040 ------- 1 0.0 3.1 4 47
+ 1.1 1 2 cbr 1000 ------- 0 1.0 3.0 40 48
- 1.1 1 2 cbr 1000 ------- 0 1.0 3.0 40 48
+ 1.1 1 2 cbr 500 ------- 0 1.0 3.0 41 49
r 1.10224 2 0 ack 40 ------- 1 3.1 0.0 2 45
+ 1.10224 0 2 tcp 1040 ------- 1 0.0 3.1 5 50
- 1.10224 0 2 tcp 1040 ------- 1 0.0 3.1 5 50
+ 1.10224 0 2 tcp 1040 ------- 1 0.0 3.1 6 51
- 1.104 1 2 cbr 500 ------- 0 1.0 3.0 41 49
- 1.1064 0 2 tcp 1040 ------- 1 0.0 3.1 6 51
r 1.10808 0 2 tcp 1040 ------- 1 0.0 3.1 3 46
+ 1.10808 2 3 tcp 1040 ------- 1 0.0 3.1 3 46
- 1.10808 2 3 tcp 1040 ------- 1 0.0 3.1 3 46
r 1.11224 0 2 tcp 1040 ------- 1 0.0 3.1 4 47
+ 1.11224 2 3 tcp 1040 ------- 1 0.0 3.1 4 47
r 1.114 1 2 cbr 1000 ------- 0 1.0 3.0 40 48
+ 1.114 2 3 cbr 1000 ------- 0 1.0 3.0 40 48
r 1.116 1 2 cbr 500 ------- 0 1.0 3.0 41 49
+ 1.116 2 3 cbr 500 ------- 0 1.0 3.0 41 49
r 1.1164 0 2 tcp 1040 ------- 1 0.0 3.1 5 50
+ 1.1164 2 3 tcp 1040 ------- 1 0.0 3.1 5 50
- 1.1164 2 3 tcp 1040 ------- 1 0.0 3.1 4 47
r 1.12056 0 2 tcp 1040 ------- 1 0.0 3.1 6 51
+ 1.12056 2 3 tcp 1040 ------- 1 0.0 3.1 6 51
- 1.12472 2 3 cbr 1000 ------- 0 1.0 3.0 40 48
r 1.1264 2 3 tcp 1040 ------- 1 0.0 3.1 3 46
+ 1.1264 3 2 ack 40 ------- 1 3.1 0.0 3 52
- 1.1264 3 2 ack 40 ------- 1 3.1 0.0 3 52
- 1.13272 2 3 cbr 500 ------- 0 1.0 3.0 41 49
r 1.13472 2 3 tcp 1040 ------- 1 0.0 3.1 4 47
+ 1.13472 3 2 ack 40 ------- 1 3.1 0.0 4 53
- 1.13472 3 2 ack 40 ------- 1 3.1 0.0 4 53
r 1.13672 3 2 ack 40 ------- 1 3.1 0.0 3 52
+ 1.13672 2 0 ack 40 ------- 1 3.1 0.0 3 52
- 1.13672 2 0 ack 40 ------- 1 3.1 0.0 3 52
- 1.13672 2 3 tcp 1040 ------- 1 0.0 3.1 5 50
r 1.14272 2 3 cbr 1000 ------- 0 1.0 3.0 40 48
r 1.14504 3 2 ack 40 ------- 1 3.1 0.0 4 53
+ 1.14504 2 0 ack 40 ------- 1 3.1 0.0 4 53
- 1.14504 2 0 ack 40 ------- 1 3.1 0.0 4 53
- 1.14504 2 3 tcp 1040 ------- 1 0.0 3.1 6 51
r 1.14672 2 3 cbr 500 ------- 0 1.0 3.0 41 49
r 1.14688 2 0 ack 40 ------- 1 3.1 0.0 3 52
+ 1.14688 0 2 tcp 1040 ------- 1 0.0 3.1 7 54
- 1.14688 0 2 tcp 1040 ------- 1 0.0 3.1 7 54
+ 1.14688 0 2 tcp 1040 ------- 1 0.0 3.1 8 55
+ 1.15 1 2 cbr 1000 ------- 0 1.0 3.0 42 56
- 1.15 1 2 cbr 1000 ------- 0 1.0 3.0 42 56
+ 1.15 1 2 cbr 500 ------- 0 1.0 3.0 43 57
- 1.15104 0 2 tcp 1040 ------- 1 0.0 3.1 8 55
- 1.154 1 2 cbr 500 ------- 0 1.0 3.0 43 57
r 1.15504 2 3 tcp 1040 ------- 1 0.0 3.1 5 50
+ 1.15504 3 2 ack 40 ------- 1 3.1 0.0 5 58
- 1.15504 3 2 ack 40 ------- 1 3.1 0.0 5 58
r 1.1552 2 0 ack 40 ------- 1 3.1 0.0 4 53
+ 1.1552 0 2 tcp 1040 ------- 1 0.0 3.1 9 59
- 1.1552 0 2 tcp 1040 ------- 1 0.0 3.1 9 59
+ 1.1552 0 2 tcp 1040 ------- 1 0.0 3.1 10 60
- 1.15936 0 2 tcp 1040 ------- 1 0.0 3.1 10 60
r 1.16104 0 2 tcp 1040 ------- 1 0.0 3.1 7 54
+ 1.16104 2 3 tcp 1040 ------- 1 0.0 3.1 7 54
- 1.16104 2 3 tcp 1040 ------- 1 0.0 3.1 7 54
r 1.16336 2 3 tcp 1040 ------- 1 0.0 3.1 6 51
+ 1.16336 3 2 ack 40 ------- 1 3.1 0.0 6 61
- 1.16336 3 2 ack 40 ------- 1 3.1 0.0 6 61
r 1.164 1 2 cbr 1000 ------- 0 1.0 3.0 42 56
+ 1.164 2 3 cbr 1000 ------- 0 1.0 3.0 42 56
r 1.1652 0 2 tcp 1040 ------- 1 0.0 3.1 8 55
+ 1.1652 2 3 tcp 1040 ------- 1 0.0 3.1 8 55
r 1.16536 3 2 ack 40 ------- 1 3.1 0.0 5 58
+ 1.16536 2 0 ack 40 ------- 1 3.1 0.0 5 58
- 1.16536 2 0 ack 40 ------- 1 3.1 0.0 5 58
r 1.166 1 2 cbr 500 ------- 0 1.0 3.0 43 57
+ 1.166 2 3 cbr 500 ------- 0 1.0 3.0 43 57
r 1.16936 0 2 tcp 1040 ------- 1 0.0 3.1 9 59
+ 1.16936 2 3 tcp 1040 ------- 1 0.0 3.1 9 59
- 1.16936 2 3 cbr 1000 ------- 0 1.0 3.0 42 56
r 1.17352 0 2 tcp 1040 ------- 1 0.0 3.1 10 60
+ 1.17352 2 3 tcp 1040 ------- 1 0.0 3.1 10 60
r 1.17368 3 2 ack 40 ------- 1 3.1 0.0 6 61
+ 1.17368 2 0 ack 40 ------- 1 3.1 0.0 6 61
- 1.17368 2 0 ack 40 ------- 1 3.1 0.0 6 61
r 1.17552 2 0 ack 40 ------- 1 3.1 0.0 5 58
+ 1.17552 0 2 tcp 1040 ------- 1 0.0 3.1 11 62
- 1.17552 0 2 tcp 1040 ------- 1 0.0 3.1 11 62
+ 1.17552 0 2 tcp 1040 ------- 1 0.0 3.1 12 63
- 1.17736 2 3 tcp 1040 ------- 1 0.0 3.1 8 55
r 1.17936 2 3 tcp 1040 ------- 1 0.0 3.1 7 54
+ 1.17936 3 2 ack 40 ------- 1 3.1 0.0 7 64
- 1.17936 3 2 ack 40 ------- 1 3.1 0.0 7 64
- 1.17968 0 2 tcp 1040 ------- 1 0.0 3.1 12 63
r 1.18384 2 0 ack 40 ------- 1 3.1 0.0 6 61
+ 1.18384 0 2 tcp 1040 ------- 1 0.0 3.1 13 65
- 1.18384 0 2 tcp 1040 ------- 1 0.0 3.1 13 65
+ 1.18384 0 2 tcp 1040 ------- 1 0.0 3.1 14 66
- 1.18568 2 3 cbr 500 ------- 0 1.0 3.0 43 57
r 1.18736 2 3 cbr 1000 ------- 0 1.0 3.0 42 56
- 1.188 0 2 tcp 1040 ------- 1 0.0 3.1 14 66
r 1.18968 3 2 ack 40 ------- 1 3.1 0.0 7 64
+ 1.18968 2 0 ack 40 ------- 1 3.1 0.0 7 64
- 1.18968 2 0 ack 40 ------- 1 3.1 0.0 7 64
r 1.18968 0 2 tcp 1040 ------- 1 0.0 3.1 11 62
+ 1.18968 2 3 tcp 1040 ------- 1 0.0 3.1 11 62
- 1.18968 2 3 tcp 1040 ------- 1 0.0 3.1 9 59
r 1.19384 0 2 tcp 1040 ------- 1 0.0 3.1 12 63
+ 1.19384 2 3 tcp 1040 ------- 1 0.0 3.1 12 63
r 1.19568 2 3 tcp 1040 ------- 1 0.0 3.1 8 55
+ 1.19568 3 2 ack 40 ------- 1 3.1 0.0 8 67
- 1.19568 3 2 ack 40 ------- 1 3.1 0.0 8 67
r 1.198 0 2 tcp 1040 ------- 1 0.0 3.1 13 65
+ 1.198 2 3 tcp 1040 ------- 1 0.0 3.1 13 65
- 1.198 2 3 tcp 1040 ------- 1 0.0 3.1 10 60
r 1.19968 2 3 cbr 500 ------- 0 1.0 3.0 43 57
r 1.19984 2 0 ack 40 ------- 1 3.1 0.0 7 64
+ 1.19984 0 2 tcp 1040 ------- 1 0.0 3.1 15 68
- 1.19984 0 2 tcp 1040 ------- 1 0.0 3.1 15 68
+ 1.19984 0 2 tcp 1040 ------- 1 0.0 3.1 16 69
+ 1.2 1 2 cbr 1000 ------- 0 1.0 3.0 44 70
- 1.2 1 2 cbr 1000 ------- 0 1.0 3.0 44 70
+ 1.2 1 2 cbr 500 ------- 0 1.0 3.0 45 71
r 1.20216 0 2 tcp 1040 ------- 1 0.0 3.1 14 66
+ 1.20216 2 3 tcp 1040 ------- 1 0.0 3.1 14 66
- 1.204 0 2 tcp 1040 ------- 1 0.0 3.1 16 69
- 1.204 1 2 cbr 500 ------- 0 1.0 3.0 45 71
r 1.206 3 2 ack 40 ------- 1 3.1 0.0 8 67
+ 1.206 2 0 ack 40 ------- 1 3.1 0.0 8 67
- 1.206 2 0 ack 40 ------- 1 3.1 0.0 8 67
- 1.20632 2 3 tcp 1040 ------- 1 0.0 3.1 11 62
r 1.208 2 3 tcp 1040 ------- 1 0.0 3.1 9 59
+ 1.208 3 2 ack 40 ------- 1 3.1 0.0 9 72
- 1.208 3 2 ack 40 ------- 1 3.1 0.0 9 72
r 1.214 0 2 tcp 1040 ------- 1 0.0 3.1 15 68
+ 1.214 2 3 tcp 1040 ------- 1 0.0 3.1 15 68
r 1.214 1 2 cbr 1000 ------- 0 1.0 3.0 44 70
+ 1.214 2 3 cbr 1000 ------- 0 1.0 3.0 44 70
- 1.21464 2 3 tcp 1040 ------- 1 0.0 3.1 12 63
r 1.216 1 2 cbr 500 ------- 0 1.0 3.0 45 71
+ 1.216 2 3 cbr 500 ------- 0 1.0 3.0 45 71
r 1.21616 2 0 ack 40 ------- 1 3.1 0.0 8 67
+ 1.21616 0 2 tcp 1040 ------- 1 0.0 3.1 17 73
- 1.21616 0 2 tcp 1040 ------- 1 0.0 3.1 17 73
+ 1.21616 0 2 tcp 1040 ------- 1 0.0 3.1 18 74
r 1.21632 2 3 tcp 1040 ------- 1 0.0 3.1 10 60
+ 1.21632 3 2 ack 40 ------- 1 3.1 0.0 10 75
- 1.21632 3 2 ack 40 ------- 1 3.1 0.0 10 75
r 1.21816 0 2 tcp 1040 ------- 1 0.0 3.1 16 69
+ 1.21816 2 3 tcp 1040 ------- 1 0.0 3.1 16 69
r 1.21832 3 2 ack 40 ------- 1 3.1 0.0 9 72
+ 1.21832 2 0 ack 40 ------- 1 3.1 0.0 9 72
- 1.21832 2 0 ack 40 ------- 1 3.1 0.0 9 72
- 1.22032 0 2 tcp 1040 ------- 1 0.0 3.1 18 74
- 1.22296 2 3 tcp 1040 ------- 1 0.0 3.1 13 65
r 1.22464 2 3 tcp 1040 ------- 1 0.0 3.1 11 62
+ 1.22464 3 2 ack 40 ------- 1 3.1 0.0 11 76
- 1.22464 3 2 ack 40 ------- 1 3.1 0.0 11 76
r 1.22664 3 2 ack 40 ------- 1 3.1 0.0 10 75
+ 1.22664 2 0 ack 40 ------- 1 3.1 0.0 10 75
- 1.22664 2 0 ack 40 ------- 1 3.1 0.0 10 75
r 1.22848 2 0 ack 40 ------- 1 3.1 0.0 9 72
+ 1.22848 0 2 tcp 1040 ------- 1 0.0 3.1 19 77
- 1.22848 0 2 tcp 1040 ------- 1 0.0 3.1 19 77
+ 1.22848 0 2 tcp 1040 ------- 1 0.0 3.1 20 78
r 1.23032 0 2 tcp 1040 ------- 1 0.0 3.1 17 73
+ 1.23032 2 3 tcp 1040 ------- 1 0.0 3.1 17 73
- 1.23128 2 3 tcp 1040 ------- 1 0.0 3.1 14 66
- 1.23264 0 2 tcp 1040 ------- 1 0.0 3.1 20 78
r 1.23296 2 3 tcp 1040 ------- 1 0.0 3.1 12 63
+ 1.23296 3 2 ack 40 ------- 1 3.1 0.0 12 79
- 1.23296 3 2 ack 40 ------- 1 3.1 0.0 12 79
r 1.23448 0 2 tcp 1040 ------- 1 0.0 3.1 18 74
+ 1.23448 2 3 tcp 1040 ------- 1 0.0 3.1 18 74
r 1.23496 3 2 ack 40 ------- 1 3.1 0.0 11 76
+ 1.23496 2 0 ack 40 ------- 1 3.1 0.0 11 76
- 1.23496 2 0 ack 40 ------- 1 3.1 0.0 11 76
r 1.2368 2 0 ack 40 ------- 1 3.1 0.0 10 75
+ 1.2368 0 2 tcp 1040 ------- 1 0.0 3.1 21 80
- 1.2368 0 2 tcp 1040 ------- 1 0.0 3.1 21 80
+ 1.2368 0 2 tcp 1040 ------- 1 0.0 3.1 22 81
- 1.2396 2 3 tcp 1040 ------- 1 0.0 3.1 15 68
- 1.24096 0 2 tcp 1040 ------- 1 0.0 3.1 22 81
r 1.24128 2 3 tcp 1040 ------- 1 0.0 3.1 13 65
+ 1.24128 3 2 ack 40 ------- 1 3.1 0.0 13 82
- 1.24128 3 2 ack 40 ------- 1 3.1 0.0 13 82
r 1.24264 0 2 tcp 1040 ------- 1 0.0 3.1 19 77
+ 1.24264 2 3 tcp 1040 ------- 1 0.0 3.1 19 77
r 1.24328 3 2 ack 40 ------- 1 3.1 0.0 12 79
+ 1.24328 2 0 ack 40 ------- 1 3.1 0.0 12 79
- 1.24328 2 0 ack 40 ------- 1 3.1 0.0 12 79
r 1.24512 2 0 ack 40 ------- 1 3.1 0.0 11 76
+ 1.24512 0 2 tcp 1040 ------- 1 0.0 3.1 23 83
- 1.24512 0 2 tcp 1040 ------- 1 0.0 3.1 23 83
+ 1.24512 0 2 tcp 1040 ------- 1 0.0 3.1 24 84
r 1.2468 0 2 tcp 1040 ------- 1 0.0 3.1 20 78
+ 1.2468 2 3 tcp 1040 ------- 1 0.0 3.1 20 78
- 1.24792 2 3 cbr 1000 ------- 0 1.0 3.0 44 70
- 1.24928 0 2 tcp 1040 ------- 1 0.0 3.1 24 84
r 1.2496 2 3 tcp 1040 ------- 1 0.0 3.1 14 66
+ 1.2496 3 2 ack 40 ------- 1 3.1 0.0 14 85
- 1.2496 3 2 ack 40 ------- 1 3.1 0.0 14 85
+ 1.25 1 2 cbr 1000 ------- 0 1.0 3.0 46 86
- 1.25 1 2 cbr 1000 ------- 0 1.0 3.0 46 86
+ 1.25 1 2 cbr 500 ------- 0 1.0 3.0 47 87
r 1.25096 0 2 tcp 1040 ------- 1 0.0 3.1 21 80
+ 1.25096 2 3 tcp 1040 ------- 1 0.0 3.1 21 80
r 1.2516 3 2 ack 40 ------- 1 3.1 0.0 13 82
+ 1.2516 2 0 ack 40 ------- 1 3.1 0.0 13 82
- 1.2516 2 0 ack 40 ------- 1 3.1 0.0 13 82
r 1.25344 2 0 ack 40 ------- 1 3.1 0.0 12 79
+ 1.25344 0 2 tcp 1040 ------- 1 0.0 3.1 25 88
- 1.25344 0 2 tcp 1040 ------- 1 0.0 3.1 25 88
+ 1.25344 0 2 tcp 1040 ------- 1 0.0 3.1 26 89
- 1.254 1 2 cbr 500 ------- 0 1.0 3.0 47 87
r 1.25512 0 2 tcp 1040 ------- 1 0.0 3.1 22 81
+ 1.25512 2 3 tcp 1040 ------- 1 0.0 3.1 22 81
- 1.25592 2 3 cbr 500 ------- 0 1.0 3.0 45 71
- 1.2576 0 2 tcp 1040 ------- 1 0.0 3.1 26 89
r 1.25792 2 3 tcp 1040 ------- 1 0.0 3.1 15 68
+ 1.25792 3 2 ack 40 ------- 1 3.1 0.0 15 90
- 1.25792 3 2 ack 40 ------- 1 3.1 0.0 15 90
r 1.25928 0 2 tcp 1040 ------- 1 0.0 3.1 23 83
+ 1.25928 2 3 tcp 1040 ------- 1 0.0 3.1 23 83
r 1.25992 3 2 ack 40 ------- 1 3.1 0.0 14 85
+ 1.25992 2 0 ack 40 ------- 1 3.1 0.0 14 85
- 1.25992 2 0 ack 40 ------- 1 3.1 0.0 14 85
- 1.25992 2 3 tcp 1040 ------- 1 0.0 3.1 16 69
r 1.26176 2 0 ack 40 ------- 1 3.1 0.0 13 82
+ 1.26176 0 2 tcp 1040 ------- 1 0.0 3.1 27 91
- 1.26176 0 2 tcp 1040 ------- 1 0.0 3.1 27 91
+ 1.26176 0 2 tcp 1040 ------- 1 0.0 3.1 28 92
r 1.26344 0 2 tcp 1040 ------- 1 0.0 3.1 24 84
+ 1.26344 2 3 tcp 1040 ------- 1 0.0 3.1 24 84
r 1.264 1 2 cbr 1000 ------- 0 1.0 3.0 46 86
+ 1.264 2 3 cbr 1000 ------- 0 1.0 3.0 46 86
- 1.26592 0 2 tcp 1040 ------- 1 0.0 3.1 28 92
r 1.26592 2 3 cbr 1000 ------- 0 1.0 3.0 44 70
r 1.266 1 2 cbr 500 ------- 0 1.0 3.0 47 87
+ 1.266 2 3 cbr 500 ------- 0 1.0 3.0 47 87
r 1.2676 0 2 tcp 1040 ------- 1 0.0 3.1 25 88
+ 1.2676 2 3 tcp 1040 ------- 1 0.0 3.1 25 88
r 1.26824 3 2 ack 40 ------- 1 3.1 0.0 15 90
+ 1.26824 2 0 ack 40 ------- 1 3.1 0.0 15 90
- 1.26824 2 0 ack 40 ------- 1 3.1 0.0 15 90
- 1.26824 2 3 tcp 1040 ------- 1 0.0 3.1 17 73
r 1.26992 2 3 cbr 500 ------- 0 1.0 3.0 45 71
r 1.27008 2 0 ack 40 ------- 1 3.1 0.0 14 85
+ 1.27008 0 2 tcp 1040 ------- 1 0.0 3.1 29 93
- 1.27008 0 2 tcp 1040 ------- 1 0.0 3.1 29 93
+ 1.27008 0 2 tcp 1040 ------- 1 0.0 3.1 30 94
r 1.27176 0 2 tcp 1040 ------- 1 0.0 3.1 26 89
+ 1.27176 2 3 tcp 1040 ------- 1 0.0 3.1 26 89
- 1.27424 0 2 tcp 1040 ------- 1 0.0 3.1 30 94
r 1.27592 0 2 tcp 1040 ------- 1 0.0 3.1 27 91
+ 1.27592 2 3 tcp 1040 ------- 1 0.0 3.1 27 91
- 1.27656 2 3 tcp 1040 ------- 1 0.0 3.1 18 74
r 1.27824 2 3 tcp 1040 ------- 1 0.0 3.1 16 69
+ 1.27824 3 2 ack 40 ------- 1 3.1 0.0 16 95
- 1.27824 3 2 ack 40 ------- 1 3.1 0.0 16 95
r 1.2784 2 0 ack 40 ------- 1 3.1 0.0 15 90
+ 1.2784 0 2 tcp 1040 ------- 1 0.0 3.1 31 96
- 1.2784 0 2 tcp 1040 ------- 1 0.0 3.1 31 96
+ 1.2784 0 2 tcp 1040 ------- 1 0.0 3.1 32 97
r 1.28008 0 2 tcp 1040 ------- 1 0.0 3.1 28 92
+ 1.28008 2 3 tcp 1040 ------- 1 0.0 3.1 28 92
- 1.28256 0 2 tcp 1040 ------- 1 0.0 3.1 32 97
r 1.28424 0 2 tcp 1040 ------- 1 0.0 3.1 29 93
+ 1.28424 2 3 tcp 1040 ------- 1 0.0 3.1 29 93
- 1.28488 2 3 tcp 1040 ------- 1 0.0 3.1 19 77
r 1.28656 2 3 tcp 1040 ------- 1 0.0 3.1 17 73
+ 1.28656 3 2 ack 40 ------- 1 3.1 0.0 17 98
- 1.28656 3 2 ack 40 ------- 1 3.1 0.0 17 98
r 1.2884 0 2 tcp 1040 ------- 1 0.0 3.1 30 94
+ 1.2884 2 3 tcp 1040 ------- 1 0.0 3.1 30 94
r 1.28856 3 2 ack 40 ------- 1 3.1 0.0 16 95
+ 1.28856 2 0 ack 40 ------- 1 3.1 0.0 16 95
- 1.28856 2 0 ack 40 ------- 1 3.1 0.0 16 95
r 1.29256 0 2 tcp 1040 ------- 1 0.0 3.1 31 96
+ 1.29256 2 3 tcp 1040 ------- 1 0.0 3.1 31 96
- 1.2932 2 3 tcp 1040 ------- 1 0.0 3.1 20 78
r 1.29488 2 3 tcp 1040 ------- 1 0.0 3.1 18 74
+ 1.29488 3 2 ack 40 ------- 1 3.1 0.0 18 99
- 1.29488 3 2 ack 40 ------- 1 3.1 0.0 18 99
r 1.29672 0 2 tcp 1040 ------- 1 0.0 3.1 32 97
+ 1.29672 2 3 tcp 1040 ------- 1 0.0 3.1 32 97
r 1.29688 3 2 ack 40 ------- 1 3.1 0.0 17 98
+ 1.29688 2 0 ack 40 ------- 1 3.1 0.0 17 98
- 1.29688 2 0 ack 40 ------- 1 3.1 0.0 17 98
r 1.29872 2 0 ack 40 ------- 1 3.1 0.0 16 95
+ 1.29872 0 2 tcp 1040 ------- 1 0.0 3.1 33 100
- 1.29872 0 2 tcp 1040 ------- 1 0.0 3.1 33 100
+ 1.29872 0 2 tcp 1040 ------- 1 0.0 3.1 34 101
+ 1.3 1 2 cbr 1000 ------- 0 1.0 3.0 48 102
- 1.3 1 2 cbr 1000 ------- 0 1.0 3.0 48 102
+ 1.3 1 2 cbr 500 ------- 0 1.0 3.0 49 103
- 1.30152 2 3 tcp 1040 ------- 1 0.0 3.1 21 80
- 1.30288 0 2 tcp 1040 ------- 1 0.0 3.1 34 101
r 1.3032 2 3 tcp 1040 ------- 1 0.0 3.1 19 77
+ 1.3032 3 2 ack 40 ------- 1 3.1 0.0 19 104
- 1.3032 3 2 ack 40 ------- 1 3.1 0.0 19 104
- 1.304 1 2 cbr 500 ------- 0 1.0 3.0 49 103
r 1.3052 3 2 ack 40 ------- 1 3.1 0.0 18 99
+ 1.3052 2 0 ack 40 ------- 1 3.1 0.0 18 99
- 1.3052 2 0 ack 40 ------- 1 3.1 0.0 18 99
r 1.30704 2 0 ack 40 ------- 1 3.1 0.0 17 98
+ 1.30704 0 2 tcp 1040 ------- 1 0.0 3.1 35 105
- 1.30704 0 2 tcp 1040 ------- 1 0.0 3.1 35 105
+ 1.30704 0 2 tcp 1040 ------- 1 0.0 3.1 36 106
- 1.30984 2 3 tcp 1040 ------- 1 0.0 3.1 22 81
- 1.3112 0 2 tcp 1040 ------- 1 0.0 3.1 36 106
r 1.31152 2 3 tcp 1040 ------- 1 0.0 3.1 20 78
+ 1.31152 3 2 ack 40 ------- 1 3.1 0.0 20 107
- 1.31152 3 2 ack 40 ------- 1 3.1 0.0 20 107
r 1.31288 0 2 tcp 1040 ------- 1 0.0 3.1 33 100
+ 1.31288 2 3 tcp 1040 ------- 1 0.0 3.1 33 100
r 1.31352 3 2 ack 40 ------- 1 3.1 0.0 19 104
+ 1.31352 2 0 ack 40 ------- 1 3.1 0.0 19 104
- 1.31352 2 0 ack 40 ------- 1 3.1 0.0 19 104
r 1.314 1 2 cbr 1000 ------- 0 1.0 3.0 48 102
+ 1.314 2 3 cbr 1000 ------- 0 1.0 3.0 48 102
r 1.31536 2 0 ack 40 ------- 1 3.1 0.0 18 99
+ 1.31536 0 2 tcp 1040 ------- 1 0.0 3.1 37 108
- 1.31536 0 2 tcp 1040 ------- 1 0.0 3.1 37 108
+ 1.31536 0 2 tcp 1040 ------- 1 0.0 3.1 38 109
r 1.316 1 2 cbr 500 ------- 0 1.0 3.0 49 103
+ 1.316 2 3 cbr 500 ------- 0 1.0 3.0 49 103
r 1.31704 0 2 tcp 1040 ------- 1 0.0 3.1 34 101
+ 1.31704 2 3 tcp 1040 ------- 1 0.0 3.1 34 101
- 1.31816 2 3 tcp 1040 ------- 1 0.0 3.1 23 83
- 1.31952 0 2 tcp 1040 ------- 1 0.0 3.1 38 109
r 1.31984 2 3 tcp 1040 ------- 1 0.0 3.1 21 80
+ 1.31984 3 2 ack 40 ------- 1 3.1 0.0 21 110
- 1.31984 3 2 ack 40 ------- 1 3.1 0.0 21 110
r 1.3212 0 2 tcp 1040 ------- 1 0.0 3.1 35 105
+ 1.3212 2 3 tcp 1040 ------- 1 0.0 3.1 35 105
r 1.32184 3 2 ack 40 ------- 1 3.1 0.0 20 107
+ 1.32184 2 0 ack 40 ------- 1 3.1 0.0 20 107
- 1.32184 2 0 ack 40 ------- 1 3.1 0.0 20 107
r 1.32368 2 0 ack 40 ------- 1 3.1 0.0 19 104
+ 1.32368 0 2 tcp 1040 ------- 1 0.0 3.1 39 111
- 1.32368 0 2 tcp 1040 ------- 1 0.0 3.1 39 111
r 1.32536 0 2 tcp 1040 ------- 1 0.0 3.1 36 106
+ 1.32536 2 3 tcp 1040 ------- 1 0.0 3.1 36 106
- 1.32648 2 3 tcp 1040 ------- 1 0.0 3.1 24 84
r 1.32816 2 3 tcp 1040 ------- 1 0.0 3.1 22 81
+ 1.32816 3 2 ack 40 ------- 1 3.1 0.0 22 112
- 1.32816 3 2 ack 40 ------- 1 3.1 0.0 22 112
r 1.32952 0 2 tcp 1040 ------- 1 0.0 3.1 37 108
+ 1.32952 2 3 tcp 1040 ------- 1 0.0 3.1 37 108
r 1.33016 3 2 ack 40 ------- 1 3.1 0.0 21 110
+ 1.33016 2 0 ack 40 ------- 1 3.1 0.0 21 110
- 1.33016 2 0 ack 40 ------- 1 3.1 0.0 21 110
r 1.332 2 0 ack 40 ------- 1 3.1 0.0 20 107
+ 1.332 0 2 tcp 1040 ------- 1 0.0 3.1 40 113
- 1.332 0 2 tcp 1040 ------- 1 0.0 3.1 40 113
r 1.33368 0 2 tcp 1040 ------- 1 0.0 3.1 38 109
+ 1.33368 2 3 tcp 1040 ------- 1 0.0 3.1 38 109
- 1.3348 2 3 cbr 1000 ------- 0 1.0 3.0 46 86
r 1.33648 2 3 tcp 1040 ------- 1 0.0 3.1 23 83
+ 1.33648 3 2 ack 40 ------- 1 3.1 0.0 23 114
- 1.33648 3 2 ack 40 ------- 1 3.1 0.0 23 114
r 1.33784 0 2 tcp 1040 ------- 1 0.0 3.1 39 111
+ 1.33784 2 3 tcp 1040 ------- 1 0.0 3.1 39 111
r 1.33848 3 2 ack 40 ------- 1 3.1 0.0 22 112
+ 1.33848 2 0 ack 40 ------- 1 3.1 0.0 22 112
- 1.33848 2 0 ack 40 ------- 1 3.1 0.0 22 112
r 1.34032 2 0 ack 40 ------- 1 3.1 0.0 21 110
+ 1.34032 0 2 tcp 1040 ------- 1 0.0 3.1 41 115
- 1.34032 0 2 tcp 1040 ------- 1 0.0 3.1 41 115
- 1.3428 2 3 cbr 500 ------- 0 1.0 3.0 47 87
r 1.3448 2 3 tcp 1040 ------- 1 0.0 3.1 24 84
+ 1.3448 3 2 ack 40 ------- 1 3.1 0.0 24 116
- 1.3448 3 2 ack 40 ------- 1 3.1 0.0 24 116
r 1.34616 0 2 tcp 1040 ------- 1 0.0 3.1 40 113
+ 1.34616 2 3 tcp 1040 ------- 1 0.0 3.1 40 113
r 1.3468 3 2 ack 40 ------- 1 3.1 0.0 23 114
+ 1.3468 2 0 ack 40 ------- 1 3.1 0.0 23 114
- 1.3468 2 0 ack 40 ------- 1 3.1 0.0 23 114
- 1.3468 2 3 tcp 1040 ------- 1 0.0 3.1 25 88
r 1.34864 2 0 ack 40 ------- 1 3.1 0.0 22 112
+ 1.34864 0 2 tcp 1040 ------- 1 0.0 3.1 42 117
- 1.34864 0 2 tcp 1040 ------- 1 0.0 3.1 42 117
+ 1.35 1 2 cbr 1000 ------- 0 1.0 3.0 50 118
- 1.35 1 2 cbr 1000 ------- 0 1.0 3.0 50 118
+ 1.35 1 2 cbr 500 ------- 0 1.0 3.0 51 119
r 1.3528 2 3 cbr 1000 ------- 0 1.0 3.0 46 86
- 1.354 1 2 cbr 500 ------- 0 1.0 3.0 51 119
r 1.35448 0 2 tcp 1040 ------- 1 0.0 3.1 41 115
+ 1.35448 2 3 tcp 1040 ------- 1 0.0 3.1 41 115
r 1.35512 3 2 ack 40 ------- 1 3.1 0.0 24 116
+ 1.35512 2 0 ack 40 ------- 1 3.1 0.0 24 116
- 1.35512 2 0 ack 40 ------- 1 3.1 0.0 24 116