+ 0.1 1 2 cbr 210 ------- 0 1.0 3.0 0 0
- 0.1 1 2 cbr 210 ------- 0 1.0 3.0 0 0
+ 0.10375 1 2 cbr 210 ------- 0 1.0 3.0 1 1
- 0.10375 1 2 cbr 210 ------- 0 1.0 3.0 1 1
+ 0.1075 1 2 cbr 210 ------- 0 1.0 3.0 2 2
- 0.1075 1 2 cbr 210 ------- 0 1.0 3.0 2 2
+ 0.11125 1 2 cbr 210 ------- 0 1.0 3.0 3 3
- 0.11125 1 2 cbr 210 ------- 0 1.0 3.0 3 3
r 0.11168 1 2 cbr 210 ------- 0 1.0 3.0 0 0
+ 0.11168 2 3 cbr 210 ------- 0 1.0 3.0 0 0
- 0.11168 2 3 cbr 210 ------- 0 1.0 3.0 0 0
+ 0.115 1 2 cbr 210 ------- 0 1.0 3.0 4 4
- 0.115 1 2 cbr 210 ------- 0 1.0 3.0 4 4
r 0.11543 1 2 cbr 210 ------- 0 1.0 3.0 1 1
+ 0.11543 2 3 cbr 210 ------- 0 1.0 3.0 1 1
- 0.11543 2 3 cbr 210 ------- 0 1.0 3.0 1 1
+ 0.11875 1 2 cbr 210 ------- 0 1.0 3.0 5 5
- 0.11875 1 2 cbr 210 ------- 0 1.0 3.0 5 5
r 0.11918 1 2 cbr 210 ------- 0 1.0 3.0 2 2
+ 0.11918 2 3 cbr 210 ------- 0 1.0 3.0 2 2
- 0.11918 2 3 cbr 210 ------- 0 1.0 3.0 2 2
+ 0.1225 1 2 cbr 210 ------- 0 1.0 3.0 6 6
- 0.1225 1 2 cbr 210 ------- 0 1.0 3.0 6 6
r 0.12293 1 2 cbr 210 ------- 0 1.0 3.0 3 3
+ 0.12293 2 3 cbr 210 ------- 0 1.0 3.0 3 3
- 0.12293 2 3 cbr 210 ------- 0 1.0 3.0 3 3
r 0.12504 2 3 cbr 210 ------- 0 1.0 3.0 0 0
+ 0.12625 1 2 cbr 210 ------- 0 1.0 3.0 7 7
- 0.12625 1 2 cbr 210 ------- 0 1.0 3.0 7 7
r 0.12668 1 2 cbr 210 ------- 0 1.0 3.0 4 4
+ 0.12668 2 3 cbr 210 ------- 0 1.0 3.0 4 4
- 0.12668 2 3 cbr 210 ------- 0 1.0 3.0 4 4
r 0.12879 2 3 cbr 210 ------- 0 1.0 3.0 1 1
+ 0.13 1 2 cbr 210 ------- 0 1.0 3.0 8 8
- 0.13 1 2 cbr 210 ------- 0 1.0 3.0 8 8
r 0.13043 1 2 cbr 210 ------- 0 1.0 3.0 5 5
+ 0.13043 2 3 cbr 210 ------- 0 1.0 3.0 5 5
- 0.13043 2 3 cbr 210 ------- 0 1.0 3.0 5 5
r 0.13254 2 3 cbr 210 ------- 0 1.0 3.0 2 2
+ 0.13375 1 2 cbr 210 ------- 0 1.0 3.0 9 9
- 0.13375 1 2 cbr 210 ------- 0 1.0 3.0 9 9
r 0.13418 1 2 cbr 210 ------- 0 1.0 3.0 6 6
+ 0.13418 2 3 cbr 210 ------- 0 1.0 3.0 6 6
- 0.13418 2 3 cbr 210 ------- 0 1.0 3.0 6 6
r 0.13629 2 3 cbr 210 ------- 0 1.0 3.0 3 3
+ 0.1375 1 2 cbr 210 ------- 0 1.0 3.0 10 10
- 0.1375 1 2 cbr 210 ------- 0 1.0 3.0 10 10
r 0.13793 1 2 cbr 210 ------- 0 1.0 3.0 7 7
+ 0.13793 2 3 cbr 210 ------- 0 1.0 3.0 7 7
- 0.13793 2 3 cbr 210 ------- 0 1.0 3.0 7 7
r 0.14004 2 3 cbr 210 ------- 0 1.0 3.0 4 4
+ 0.14125 1 2 cbr 210 ------- 0 1.0 3.0 11 11
- 0.14125 1 2 cbr 210 ------- 0 1.0 3.0 11 11
r 0.14168 1 2 cbr 210 ------- 0 1.0 3.0 8 8
+ 0.14168 2 3 cbr 210 ------- 0 1.0 3.0 8 8
- 0.14168 2 3 cbr 210 ------- 0 1.0 3.0 8 8
r 0.14379 2 3 cbr 210 ------- 0 1.0 3.0 5 5
+ 0.145 1 2 cbr 210 ------- 0 1.0 3.0 12 12
- 0.145 1 2 cbr 210 ------- 0 1.0 3.0 12 12
r 0.14543 1 2 cbr 210 ------- 0 1.0 3.0 9 9
+ 0.14543 2 3 cbr 210 ------- 0 1.0 3.0 9 9
- 0.14543 2 3 cbr 210 ------- 0 1.0 3.0 9 9
r 0.14754 2 3 cbr 210 ------- 0 1.0 3.0 6 6
+ 0.14875 1 2 cbr 210 ------- 0 1.0 3.0 13 13
- 0.14875 1 2 cbr 210 ------- 0 1.0 3.0 13 13
r 0.14918 1 2 cbr 210 ------- 0 1.0 3.0 10 10
+ 0.14918 2 3 cbr 210 ------- 0 1.0 3.0 10 10
- 0.14918 2 3 cbr 210 ------- 0 1.0 3.0 10 10
r 0.15129 2 3 cbr 210 ------- 0 1.0 3.0 7 7
+ 0.1525 1 2 cbr 210 ------- 0 1.0 3.0 14 14
- 0.1525 1 2 cbr 210 ------- 0 1.0 3.0 14 14
r 0.15293 1 2 cbr 210 ------- 0 1.0 3.0 11 11
+ 0.15293 2 3 cbr 210 ------- 0 1.0 3.0 11 11
- 0.15293 2 3 cbr 210 ------- 0 1.0 3.0 11 11
r 0.15504 2 3 cbr 210 ------- 0 1.0 3.0 8 8
+ 0.15625 1 2 cbr 210 ------- 0 1.0 3.0 15 15
- 0.15625 1 2 cbr 210 ------- 0 1.0 3.0 15 15
r 0.15668 1 2 cbr 210 ------- 0 1.0 3.0 12 12
+ 0.15668 2 3 cbr 210 ------- 0 1.0 3.0 12 12
- 0.15668 2 3 cbr 210 ------- 0 1.0 3.0 12 12
r 0.15879 2 3 cbr 210 ------- 0 1.0 3.0 9 9
+ 0.16 1 2 cbr 210 ------- 0 1.0 3.0 16 16
- 0.16 1 2 cbr 210 ------- 0 1.0 3.0 16 16
r 0.16043 1 2 cbr 210 ------- 0 1.0 3.0 13 13
+ 0.16043 2 3 cbr 210 ------- 0 1.0 3.0 13 13
- 0.16043 2 3 cbr 210 ------- 0 1.0 3.0 13 13
r 0.16254 2 3 cbr 210 ------- 0 1.0 3.0 10 10
+ 0.16375 1 2 cbr 210 ------- 0 1.0 3.0 17 17
- 0.16375 1 2 cbr 210 ------- 0 1.0 3.0 17 17
r 0.16418 1 2 cbr 210 ------- 0 1.0 3.0 14 14
+ 0.16418 2 3 cbr 210 ------- 0 1.0 3.0 14 14
- 0.16418 2 3 cbr 210 ------- 0 1.0 3.0 14 14
r 0.16629 2 3 cbr 210 ------- 0 1.0 3.0 11 11
+ 0.1675 1 2 cbr 210 ------- 0 1.0 3.0 18 18
- 0.1675 1 2 cbr 210 ------- 0 1.0 3.0 18 18
r 0.16793 1 2 cbr 210 ------- 0 1.0 3.0 15 15
+ 0.16793 2 3 cbr 210 ------- 0 1.0 3.0 15 15
- 0.16793 2 3 cbr 210 ------- 0 1.0 3.0 15 15
r 0.17004 2 3 cbr 210 ------- 0 1.0 3.0 12 12
+ 0.17125 1 2 cbr 210 ------- 0 1.0 3.0 19 19
- 0.17125 1 2 cbr 210 ------- 0 1.0 3.0 19 19
r 0.17168 1 2 cbr 210 ------- 0 1.0 3.0 16 16
+ 0.17168 2 3 cbr 210 ------- 0 1.0 3.0 16 16
- 0.17168 2 3 cbr 210 ------- 0 1.0 3.0 16 16
r 0.17379 2 3 cbr 210 ------- 0 1.0 3.0 13 13
+ 0.175 1 2 cbr 210 ------- 0 1.0 3.0 20 20
- 0.175 1 2 cbr 210 ------- 0 1.0 3.0 20 20
r 0.17543 1 2 cbr 210 ------- 0 1.0 3.0 17 17
+ 0.17543 2 3 cbr 210 ------- 0 1.0 3.0 17 17
- 0.17543 2 3 cbr 210 ------- 0 1.0 3.0 17 17
r 0.17754 2 3 cbr 210 ------- 0 1.0 3.0 14 14
+ 0.17875 1 2 cbr 210 ------- 0 1.0 3.0 21 21
- 0.17875 1 2 cbr 210 ------- 0 1.0 3.0 21 21
r 0.17918 1 2 cbr 210 ------- 0 1.0 3.0 18 18
+ 0.17918 2 3 cbr 210 ------- 0 1.0 3.0 18 18
- 0.17918 2 3 cbr 210 ------- 0 1.0 3.0 18 18
r 0.18129 2 3 cbr 210 ------- 0 1.0 3.0 15 15
+ 0.1825 1 2 cbr 210 ------- 0 1.0 3.0 22 22
- 0.1825 1 2 cbr 210 ------- 0 1.0 3.0 22 22
r 0.18293 1 2 cbr 210 ------- 0 1.0 3.0 19 19
+ 0.18293 2 3 cbr 210 ------- 0 1.0 3.0 19 19
- 0.18293 2 3 cbr 210 ------- 0 1.0 3.0 19 19
r 0.18504 2 3 cbr 210 ------- 0 1.0 3.0 16 16
+ 0.18625 1 2 cbr 210 ------- 0 1.0 3.0 23 23
- 0.18625 1 2 cbr 210 ------- 0 1.0 3.0 23 23
r 0.18668 1 2 cbr 210 ------- 0 1.0 3.0 20 20
+ 0.18668 2 3 cbr 210 ------- 0 1.0 3.0 20 20
- 0.18668 2 3 cbr 210 ------- 0 1.0 3.0 20 20
r 0.18879 2 3 cbr 210 ------- 0 1.0 3.0 17 17
+ 0.19 1 2 cbr 210 ------- 0 1.0 3.0 24 24
- 0.19 1 2 cbr 210 ------- 0 1.0 3.0 24 24
r 0.19043 1 2 cbr 210 ------- 0 1.0 3.0 21 21
+ 0.19043 2 3 cbr 210 ------- 0 1.0 3.0 21 21
- 0.19043 2 3 cbr 210 ------- 0 1.0 3.0 21 21
r 0.19254 2 3 cbr 210 ------- 0 1.0 3.0 18 18
+ 0.19375 1 2 cbr 210 ------- 0 1.0 3.0 25 25
- 0.19375 1 2 cbr 210 ------- 0 1.0 3.0 25 25
r 0.19418 1 2 cbr 210 ------- 0 1.0 3.0 22 22
+ 0.19418 2 3 cbr 210 ------- 0 1.0 3.0 22 22
- 0.19418 2 3 cbr 210 ------- 0 1.0 3.0 22 22
r 0.19629 2 3 cbr 210 ------- 0 1.0 3.0 19 19
+ 0.1975 1 2 cbr 210 ------- 0 1.0 3.0 26 26
- 0.1975 1 2 cbr 210 ------- 0 1.0 3.0 26 26
r 0.19793 1 2 cbr 210 ------- 0 1.0 3.0 23 23
+ 0.19793 2 3 cbr 210 ------- 0 1.0 3.0 23 23
- 0.19793 2 3 cbr 210 ------- 0 1.0 3.0 23 23
r 0.20004 2 3 cbr 210 ------- 0 1.0 3.0 20 20
+ 0.20125 1 2 cbr 210 ------- 0 1.0 3.0 27 27
- 0.20125 1 2 cbr 210 ------- 0 1.0 3.0 27 27
r 0.20168 1 2 cbr 210 ------- 0 1.0 3.0 24 24
+ 0.20168 2 3 cbr 210 ------- 0 1.0 3.0 24 24
- 0.20168 2 3 cbr 210 ------- 0 1.0 3.0 24 24
r 0.20379 2 3 cbr 210 ------- 0 1.0 3.0 21 21
+ 0.205 1 2 cbr 210 ------- 0 1.0 3.0 28 28
- 0.205 1 2 cbr 210 ------- 0 1.0 3.0 28 28
r 0.20543 1 2 cbr 210 ------- 0 1.0 3.0 25 25
+ 0.20543 2 3 cbr 210 ------- 0 1.0 3.0 25 25
- 0.20543 2 3 cbr 210 ------- 0 1.0 3.0 25 25
r 0.20754 2 3 cbr 210 ------- 0 1.0 3.0 22 22
+ 0.20875 1 2 cbr 210 ------- 0 1.0 3.0 29 29
- 0.20875 1 2 cbr 210 ------- 0 1.0 3.0 29 29
r 0.20918 1 2 cbr 210 ------- 0 1.0 3.0 26 26
+ 0.20918 2 3 cbr 210 ------- 0 1.0 3.0 26 26
- 0.20918 2 3 cbr 210 ------- 0 1.0 3.0 26 26
r 0.21129 2 3 cbr 210 ------- 0 1.0 3.0 23 23
+ 0.2125 1 2 cbr 210 ------- 0 1.0 3.0 30 30
- 0.2125 1 2 cbr 210 ------- 0 1.0 3.0 30 30
r 0.21293 1 2 cbr 210 ------- 0 1.0 3.0 27 27
+ 0.21293 2 3 cbr 210 ------- 0 1.0 3.0 27 27
- 0.21293 2 3 cbr 210 ------- 0 1.0 3.0 27 27
r 0.21504 2 3 cbr 210 ------- 0 1.0 3.0 24 24
+ 0.21625 1 2 cbr 210 ------- 0 1.0 3.0 31 31
- 0.21625 1 2 cbr 210 ------- 0 1.0 3.0 31 31
r 0.21668 1 2 cbr 210 ------- 0 1.0 3.0 28 28
+ 0.21668 2 3 cbr 210 ------- 0 1.0 3.0 28 28
- 0.21668 2 3 cbr 210 ------- 0 1.0 3.0 28 28
r 0.21879 2 3 cbr 210 ------- 0 1.0 3.0 25 25
+ 0.22 1 2 cbr 210 ------- 0 1.0 3.0 32 32
- 0.22 1 2 cbr 210 ------- 0 1.0 3.0 32 32
r 0.22043 1 2 cbr 210 ------- 0 1.0 3.0 29 29
+ 0.22043 2 3 cbr 210 ------- 0 1.0 3.0 29 29
- 0.22043 2 3 cbr 210 ------- 0 1.0 3.0 29 29
r 0.22254 2 3 cbr 210 ------- 0 1.0 3.0 26 26
+ 0.22375 1 2 cbr 210 ------- 0 1.0 3.0 33 33
- 0.22375 1 2 cbr 210 ------- 0 1.0 3.0 33 33
r 0.22418 1 2 cbr 210 ------- 0 1.0 3.0 30 30
+ 0.22418 2 3 cbr 210 ------- 0 1.0 3.0 30 30
- 0.22418 2 3 cbr 210 ------- 0 1.0 3.0 30 30
r 0.22629 2 3 cbr 210 ------- 0 1.0 3.0 27 27
+ 0.2275 1 2 cbr 210 ------- 0 1.0 3.0 34 34
- 0.2275 1 2 cbr 210 ------- 0 1.0 3.0 34 34
r 0.22793 1 2 cbr 210 ------- 0 1.0 3.0 31 31
+ 0.22793 2 3 cbr 210 ------- 0 1.0 3.0 31 31
- 0.22793 2 3 cbr 210 ------- 0 1.0 3.0 31 31
r 0.23004 2 3 cbr 210 ------- 0 1.0 3.0 28 28
+ 0.23125 1 2 cbr 210 ------- 0 1.0 3.0 35 35
- 0.23125 1 2 cbr 210 ------- 0 1.0 3.0 35 35
r 0.23168 1 2 cbr 210 ------- 0 1.0 3.0 32 32
+ 0.23168 2 3 cbr 210 ------- 0 1.0 3.0 32 32
- 0.23168 2 3 cbr 210 ------- 0 1.0 3.0 32 32
r 0.23379 2 3 cbr 210 ------- 0 1.0 3.0 29 29
+ 0.235 1 2 cbr 210 ------- 0 1.0 3.0 36 36
- 0.235 1 2 cbr 210 ------- 0 1.0 3.0 36 36
r 0.23543 1 2 cbr 210 ------- 0 1.0 3.0 33 33
+ 0.23543 2 3 cbr 210 ------- 0 1.0 3.0 33 33
- 0.23543 2 3 cbr 210 ------- 0 1.0 3.0 33 33
r 0.23754 2 3 cbr 210 ------- 0 1.0 3.0 30 30
+ 0.23875 1 2 cbr 210 ------- 0 1.0 3.0 37 37
- 0.23875 1 2 cbr 210 ------- 0 1.0 3.0 37 37
r 0.23918 1 2 cbr 210 ------- 0 1.0 3.0 34 34
+ 0.23918 2 3 cbr 210 ------- 0 1.0 3.0 34 34
- 0.23918 2 3 cbr 210 ------- 0 1.0 3.0 34 34
r 0.24129 2 3 cbr 210 ------- 0 1.0 3.0 31 31
+ 0.2425 1 2 cbr 210 ------- 0 1.0 3.0 38 38
- 0.2425 1 2 cbr 210 ------- 0 1.0 3.0 38 38
r 0.24293 1 2 cbr 210 ------- 0 1.0 3.0 35 35
+ 0.24293 2 3 cbr 210 ------- 0 1.0 3.0 35 35
- 0.24293 2 3 cbr 210 ------- 0 1.0 3.0 35 35
r 0.24504 2 3 cbr 210 ------- 0 1.0 3.0 32 32
+ 0.24625 1 2 cbr 210 ------- 0 1.0 3.0 39 39
- 0.24625 1 2 cbr 210 ------- 0 1.0 3.0 39 39
r 0.24668 1 2 cbr 210 ------- 0 1.0 3.0 36 36
+ 0.24668 2 3 cbr 210 ------- 0 1.0 3.0 36 36
- 0.24668 2 3 cbr 210 ------- 0 1.0 3.0 36 36
r 0.24879 2 3 cbr 210 ------- 0 1.0 3.0 33 33
+ 0.25 1 2 cbr 210 ------- 0 1.0 3.0 40 40
- 0.25 1 2 cbr 210 ------- 0 1.0 3.0 40 40
r 0.25043 1 2 cbr 210 ------- 0 1.0 3.0 37 37
+ 0.25043 2 3 cbr 210 ------- 0 1.0 3.0 37 37
- 0.25043 2 3 cbr 210 ------- 0 1.0 3.0 37 37
r 0.25254 2 3 cbr 210 ------- 0 1.0 3.0 34 34
+ 0.25375 1 2 cbr 210 ------- 0 1.0 3.0 41 41
- 0.25375 1 2 cbr 210 ------- 0 1.0 3.0 41 41
r 0.25418 1 2 cbr 210 ------- 0 1.0 3.0 38 38
+ 0.25418 2 3 cbr 210 ------- 0 1.0 3.0 38 38
- 0.25418 2 3 cbr 210 ------- 0 1.0 3.0 38 38
r 0.25629 2 3 cbr 210 ------- 0 1.0 3.0 35 35
+ 0.2575 1 2 cbr 210 ------- 0 1.0 3.0 42 42
- 0.2575 1 2 cbr 210 ------- 0 1.0 3.0 42 42
r 0.25793 1 2 cbr 210 ------- 0 1.0 3.0 39 39
+ 0.25793 2 3 cbr 210 ------- 0 1.0 3.0 39 39
- 0.25793 2 3 cbr 210 ------- 0 1.0 3.0 39 39
r 0.26004 2 3 cbr 210 ------- 0 1.0 3.0 36 36
+ 0.26125 1 2 cbr 210 ------- 0 1.0 3.0 43 43
- 0.26125 1 2 cbr 210 ------- 0 1.0 3.0 43 43
r 0.26168 1 2 cbr 210 ------- 0 1.0 3.0 40 40
+ 0.26168 2 3 cbr 210 ------- 0 1.0 3.0 40 40
- 0.26168 2 3 cbr 210 ------- 0 1.0 3.0 40 40
r 0.26379 2 3 cbr 210 ------- 0 1.0 3.0 37 37
+ 0.265 1 2 cbr 210 ------- 0 1.0 3.0 44 44
- 0.265 1 2 cbr 210 ------- 0 1.0 3.0 44 44
r 0.26543 1 2 cbr 210 ------- 0 1.0 3.0 41 41
+ 0.26543 2 3 cbr 210 ------- 0 1.0 3.0 41 41
- 0.26543 2 3 cbr 210 ------- 0 1.0 3.0 41 41
r 0.26754 2 3 cbr 210 ------- 0 1.0 3.0 38 38
+ 0.26875 1 2 cbr 210 ------- 0 1.0 3.0 45 45
- 0.26875 1 2 cbr 210 ------- 0 1.0 3.0 45 45
r 0.26918 1 2 cbr 210 ------- 0 1.0 3.0 42 42
+ 0.26918 2 3 cbr 210 ------- 0 1.0 3.0 42 42
- 0.26918 2 3 cbr 210 ------- 0 1.0 3.0 42 42
r 0.27129 2 3 cbr 210 ------- 0 1.0 3.0 39 39
+ 0.2725 1 2 cbr 210 ------- 0 1.0 3.0 46 46
- 0.2725 1 2 cbr 210 ------- 0 1.0 3.0 46 46
r 0.27293 1 2 cbr 210 ------- 0 1.0 3.0 43 43
+ 0.27293 2 3 cbr 210 ------- 0 1.0 3.0 43 43
- 0.27293 2 3 cbr 210 ------- 0 1.0 3.0 43 43
r 0.27504 2 3 cbr 210 ------- 0 1.0 3.0 40 40
+ 0.27625 1 2 cbr 210 ------- 0 1.0 3.0 47 47
- 0.27625 1 2 cbr 210 ------- 0 1.0 3.0 47 47
r 0.27668 1 2 cbr 210 ------- 0 1.0 3.0 44 44
+ 0.27668 2 3 cbr 210 ------- 0 1.0 3.0 44 44
- 0.27668 2 3 cbr 210 ------- 0 1.0 3.0 44 44
r 0.27879 2 3 cbr 210 ------- 0 1.0 3.0 41 41
+ 0.28 1 2 cbr 210 ------- 0 1.0 3.0 48 48
- 0.28 1 2 cbr 210 ------- 0 1.0 3.0 48 48
r 0.28043 1 2 cbr 210 ------- 0 1.0 3.0 45 45
+ 0.28043 2 3 cbr 210 ------- 0 1.0 3.0 45 45
- 0.28043 2 3 cbr 210 ------- 0 1.0 3.0 45 45
r 0.28254 2 3 cbr 210 ------- 0 1.0 3.0 42 42
+ 0.28375 1 2 cbr 210 ------- 0 1.0 3.0 49 49
- 0.28375 1 2 cbr 210 ------- 0 1.0 3.0 49 49
r 0.28418 1 2 cbr 210 ------- 0 1.0 3.0 46 46
+ 0.28418 2 3 cbr 210 ------- 0 1.0 3.0 46 46
- 0.28418 2 3 cbr 210 ------- 0 1.0 3.0 46 46
r 0.28629 2 3 cbr 210 ------- 0 1.0 3.0 43 43
+ 0.2875 1 2 cbr 210 ------- 0 1.0 3.0 50 50
- 0.2875 1 2 cbr 210 ------- 0 1.0 3.0 50 50
r 0.28793 1 2 cbr 210 ------- 0 1.0 3.0 47 47
+ 0.28793 2 3 cbr 210 ------- 0 1.0 3.0 47 47
- 0.28793 2 3 cbr 210 ------- 0 1.0 3.0 47 47
r 0.29004 2 3 cbr 210 ------- 0 1.0 3.0 44 44
+ 0.29125 1 2 cbr 210 ------- 0 1.0 3.0 51 51
- 0.29125 1 2 cbr 210 ------- 0 1.0 3.0 51 51
r 0.29168 1 2 cbr 210 ------- 0 1.0 3.0 48 48
+ 0.29168 2 3 cbr 210 ------- 0 1.0 3.0 48 48
- 0.29168 2 3 cbr 210 ------- 0 1.0 3.0 48 48
r 0.29379 2 3 cbr 210 ------- 0 1.0 3.0 45 45
+ 0.295 1 2 cbr 210 ------- 0 1.0 3.0 52 52
- 0.295 1 2 cbr 210 ------- 0 1.0 3.0 52 52
r 0.29543 1 2 cbr 210 ------- 0 1.0 3.0 49 49
+ 0.29543 2 3 cbr 210 ------- 0 1.0 3.0 49 49
- 0.29543 2 3 cbr 210 ------- 0 1.0 3.0 49 49
r 0.29754 2 3 cbr 210 ------- 0 1.0 3.0 46 46
+ 0.29875 1 2 cbr 210 ------- 0 1.0 3.0 53 53
- 0.29875 1 2 cbr 210 ------- 0 1.0 3.0 53 53
r 0.29918 1 2 cbr 210 ------- 0 1.0 3.0 50 50
+ 0.29918 2 3 cbr 210 ------- 0 1.0 3.0 50 50
- 0.29918 2 3 cbr 210 ------- 0 1.0 3.0 50 50
r 0.30129 2 3 cbr 210 ------- 0 1.0 3.0 47 47
+ 0.3025 1 2 cbr 210 ------- 0 1.0 3.0 54 54
- 0.3025 1 2 cbr 210 ------- 0 1.0 3.0 54 54
r 0.30293 1 2 cbr 210 ------- 0 1.0 3.0 51 51
+ 0.30293 2 3 cbr 210 ------- 0 1.0 3.0 51 51
- 0.30293 2 3 cbr 210 ------- 0 1.0 3.0 51 51
r 0.30504 2 3 cbr 210 ------- 0 1.0 3.0 48 48
+ 0.30625 1 2 cbr 210 ------- 0 1.0 3.0 55 55
- 0.30625 1 2 cbr 210 ------- 0 1.0 3.0 55 55
r 0.30668 1 2 cbr 210 ------- 0 1.0 3.0 52 52
+ 0.30668 2 3 cbr 210 ------- 0 1.0 3.0 52 52
- 0.30668 2 3 cbr 210 ------- 0 1.0 3.0 52 52
r 0.30879 2 3 cbr 210 ------- 0 1.0 3.0 49 49
+ 0.31 1 2 cbr 210 ------- 0 1.0 3.0 56 56
- 0.31 1 2 cbr 210 ------- 0 1.0 3.0 56 56
r 0.31043 1 2 cbr 210 ------- 0 1.0 3.0 53 53
+ 0.31043 2 3 cbr 210 ------- 0 1.0 3.0 53 53
- 0.31043 2 3 cbr 210 ------- 0 1.0 3.0 53 53
r 0.31254 2 3 cbr 210 ------- 0 1.0 3.0 50 50
+ 0.31375 1 2 cbr 210 ------- 0 1.0 3.0 57 57
- 0.31375 1 2 cbr 210 ------- 0 1.0 3.0 57 57
r 0.31418 1 2 cbr 210 ------- 0 1.0 3.0 54 54
+ 0.31418 2 3 cbr 210 ------- 0 1.0 3.0 54 54
- 0.31418 2 3 cbr 210 ------- 0 1.0 3.0 54 54
r 0.31629 2 3 cbr 210 ------- 0 1.0 3.0 51 51
+ 0.3175 1 2 cbr 210 ------- 0 1.0 3.0 58 58
- 0.3175 1 2 cbr 210 ------- 0 1.0 3.0 58 58
r 0.31793 1 2 cbr 210 ------- 0 1.0 3.0 55 55
+ 0.31793 2 3 cbr 210 ------- 0 1.0 3.0 55 55
- 0.31793 2 3 cbr 210 ------- 0 1.0 3.0 55 55
r 0.32004 2 3 cbr 210 ------- 0 1.0 3.0 52 52
+ 0.32125 1 2 cbr 210 ------- 0 1.0 3.0 59 59
- 0.32125 1 2 cbr 210 ------- 0 1.0 3.0 59 59
r 0.32168 1 2 cbr 210 ------- 0 1.0 3.0 56 56
+ 0.32168 2 3 cbr 210 ------- 0 1.0 3.0 56 56
- 0.32168 2 3 cbr 210 ------- 0 1.0 3.0 56 56
r 0.32379 2 3 cbr 210 ------- 0 1.0 3.0 53 53
+ 0.325 1 2 cbr 210 ------- 0 1.0 3.0 60 60
- 0.325 1 2 cbr 210 ------- 0 1.0 3.0 60 60
r 0.32543 1 2 cbr 210 ------- 0 1.0 3.0 57 57
+ 0.32543 2 3 cbr 210 ------- 0 1.0 3.0 57 57
- 0.32543 2 3 cbr 210 ------- 0 1.0 3.0 57 57
r 0.32754 2 3 cbr 210 ------- 0 1.0 3.0 54 54
+ 0.32875 1 2 cbr 210 ------- 0 1.0 3.0 61 61
- 0.32875 1 2 cbr 210 ------- 0 1.0 3.0 61 61
r 0.32918 1 2 cbr 210 ------- 0 1.0 3.0 58 58
+ 0.32918 2 3 cbr 210 ------- 0 1.0 3.0 58 58
- 0.32918 2 3 cbr 210 ------- 0 1.0 3.0 58 58
r 0.33129 2 3 cbr 210 ------- 0 1.0 3.0 55 55
+ 0.3325 1 2 cbr 210 ------- 0 1.0 3.0 62 62
- 0.3325 1 2 cbr 210 ------- 0 1.0 3.0 62 62
r 0.33293 1 2 cbr 210 ------- 0 1.0 3.0 59 59
+ 0.33293 2 3 cbr 210 ------- 0 1.0 3.0 59 59
- 0.33293 2 3 cbr 210 ------- 0 1.0 3.0 59 59
r 0.33504 2 3 cbr 210 ------- 0 1.0 3.0 56 56
+ 0.33625 1 2 cbr 210 ------- 0 1.0 3.0 63 63
- 0.33625 1 2 cbr 210 ------- 0 1.0 3.0 63 63
r 0.33668 1 2 cbr 210 ------- 0 1.0 3.0 60 60
+ 0.33668 2 3 cbr 210 ------- 0 1.0 3.0 60 60
- 0.33668 2 3 cbr 210 ------- 0 1.0 3.0 60 60
r 0.33879 2 3 cbr 210 ------- 0 1.0 3.0 57 57
+ 0.34 1 2 cbr 210 ------- 0 1.0 3.0 64 64
- 0.34 1 2 cbr 210 ------- 0 1.0 3.0 64 64
r 0.34043 1 2 cbr 210 ------- 0 1.0 3.0 61 61
+ 0.34043 2 3 cbr 210 ------- 0 1.0 3.0 61 61
- 0.34043 2 3 cbr 210 ------- 0 1.0 3.0 61 61
r 0.34254 2 3 cbr 210 ------- 0 1.0 3.0 58 58
+ 0.34375 1 2 cbr 210 ------- 0 1.0 3.0 65 65
- 0.34375 1 2 cbr 210 ------- 0 1.0 3.0 65 65
r 0.34418 1 2 cbr 210 ------- 0 1.0 3.0 62 62
+ 0.34418 2 3 cbr 210 ------- 0 1.0 3.0 62 62
- 0.34418 2 3 cbr 210 ------- 0 1.0 3.0 62 62
r 0.34629 2 3 cbr 210 ------- 0 1.0 3.0 59 59
+ 0.3475 1 2 cbr 210 ------- 0 1.0 3.0 66 66
- 0.3475 1 2 cbr 210 ------- 0 1.0 3.0 66 66
r 0.34793 1 2 cbr 210 ------- 0 1.0 3.0 63 63
+ 0.34793 2 3 cbr 210 ------- 0 1.0 3.0 63 63
- 0.34793 2 3 cbr 210 ------- 0 1.0 3.0 63 63
r 0.35004 2 3 cbr 210 ------- 0 1.0 3.0 60 60
+ 0.35125 1 2 cbr 210 ------- 0 1.0 3.0 67 67
- 0.35125 1 2 cbr 210 ------- 0 1.0 3.0 67 67
r 0.35168 1 2 cbr 210 ------- 0 1.0 3.0 64 64
+ 0.35168 2 3 cbr 210 ------- 0 1.0 3.0 64 64
- 0.35168 2 3 cbr 210 ------- 0 1.0 3.0 64 64
r 0.35379 2 3 cbr 210 ------- 0 1.0 3.0 61 61
+ 0.355 1 2 cbr 210 ------- 0 1.0 3.0 68 68
- 0.355 1 2 cbr 210 ------- 0 1.0 3.0 68 68
r 0.35543 1 2 cbr 210 ------- 0 1.0 3.0 65 65
+ 0.35543 2 3 cbr 210 ------- 0 1.0 3.0 65 65
- 0.35543 2 3 cbr 210 ------- 0 1.0 3.0 65 65
r 0.35754 2 3 cbr 210 ------- 0 1.0 3.0 62 62
+ 0.35875 1 2 cbr 210 ------- 0 1.0 3.0 69 69
- 0.35875 1 2 cbr 210 ------- 0 1.0 3.0 69 69
r 0.35918 1 2 cbr 210 ------- 0 1.0 3.0 66 66
+ 0.35918 2 3 cbr 210 ------- 0 1.0 3.0 66 66
- 0.35918 2 3 cbr 210 ------- 0 1.0 3.0 66 66
r 0.36129 2 3 cbr 210 ------- 0 1.0 3.0 63 63
+ 0.3625 1 2 cbr 210 ------- 0 1.0 3.0 70 70
- 0.3625 1 2 cbr 210 ------- 0 1.0 3.0 70 70
r 0.36293 1 2 cbr 210 ------- 0 1.0 3.0 67 67
+ 0.36293 2 3 cbr 210 ------- 0 1.0 3.0 67 67
- 0.36293 2 3 cbr 210 ------- 0 1.0 3.0 67 67
r 0.36504 2 3 cbr 210 ------- 0 1.0 3.0 64 64
+ 0.36625 1 2 cbr 210 ------- 0 1.0 3.0 71 71
- 0.36625 1 2 cbr 210 ------- 0 1.0 3.0 71 71
r 0.36668 1 2 cbr 210 ------- 0 1.0 3.0 68 68
+ 0.36668 2 3 cbr 210 ------- 0 1.0 3.0 68 68
- 0.36668 2 3 cbr 210 ------- 0 1.0 3.0 68 68
r 0.36879 2 3 cbr 210 ------- 0 1.0 3.0 65 65
+ 0.37 1 2 cbr 210 ------- 0 1.0 3.0 72 72
- 0.37 1 2 cbr 210 ------- 0 1.0 3.0 72 72
r 0.37043 1 2 cbr 210 ------- 0 1.0 3.0 69 69
+ 0.37043 2 3 cbr 210 ------- 0 1.0 3.0 69 69
- 0.37043 2 3 cbr 210 ------- 0 1.0 3.0 69 69
r 0.37254 2 3 cbr 210 ------- 0 1.0 3.0 66 66
+ 0.37375 1 2 cbr 210 ------- 0 1.0 3.0 73 73
- 0.37375 1 2 cbr 210 ------- 0 1.0 3.0 73 73
r 0.37418 1 2 cbr 210 ------- 0 1.0 3.0 70 70
+ 0.37418 2 3 cbr 210 ------- 0 1.0 3.0 70 70
- 0.37418 2 3 cbr 210 ------- 0 1.0 3.0 70 70
r 0.37629 2 3 cbr 210 ------- 0 1.0 3.0 67 67
+ 0.3775 1 2 cbr 210 ------- 0 1.0 3.0 74 74
- 0.3775 1 2 cbr 210 ------- 0 1.0 3.0 74 74
r 0.37793 1 2 cbr 210 ------- 0 1.0 3.0 71 71
+ 0.37793 2 3 cbr 210 ------- 0 1.0 3.0 71 71
- 0.37793 2 3 cbr 210 ------- 0 1.0 3.0 71 71
r 0.38004 2 3 cbr 210 ------- 0 1.0 3.0 68 68
+ 0.38125 1 2 cbr 210 ------- 0 1.0 3.0 75 75
- 0.38125 1 2 cbr 210 ------- 0 1.0 3.0 75 75
r 0.38168 1 2 cbr 210 ------- 0 1.0 3.0 72 72
+ 0.38168 2 3 cbr 210 ------- 0 1.0 3.0 72 72
- 0.38168 2 3 cbr 210 ------- 0 1.0 3.0 72 72
r 0.38379 2 3 cbr 210 ------- 0 1.0 3.0 69 69
+ 0.385 1 2 cbr 210 ------- 0 1.0 3.0 76 76
- 0.385 1 2 cbr 210 ------- 0 1.0 3.0 76 76
r 0.38543 1 2 cbr 210 ------- 0 1.0 3.0 73 73
+ 0.38543 2 3 cbr 210 ------- 0 1.0 3.0 73 73
- 0.38543 2 3 cbr 210 ------- 0 1.0 3.0 73 73
r 0.38754 2 3 cbr 210 ------- 0 1.0 3.0 70 70
+ 0.38875 1 2 cbr 210 ------- 0 1.0 3.0 77 77
- 0.38875 1 2 cbr 210 ------- 0 1.0 3.0 77 77
r 0.38918 1 2 cbr 210 ------- 0 1.0 3.0 74 74
+ 0.38918 2 3 cbr 210 ------- 0 1.0 3.0 74 74
- 0.38918 2 3 cbr 210 ------- 0 1.0 3.0 74 74
r 0.39129 2 3 cbr 210 ------- 0 1.0 3.0 71 71
+ 0.3925 1 2 cbr 210 ------- 0 1.0 3.0 78 78
- 0.3925 1 2 cbr 210 ------- 0 1.0 3.0 78 78
r 0.39293 1 2 cbr 210 ------- 0 1.0 3.0 75 75
+ 0.39293 2 3 cbr 210 ------- 0 1.0 3.0 75 75
- 0.39293 2 3 cbr 210 ------- 0 1.0 3.0 75 75
r 0.39504 2 3 cbr 210 ------- 0 1.0 3.0 72 72
+ 0.39625 1 2 cbr 210 ------- 0 1.0 3.0 79 79
- 0.39625 1 2 cbr 210 ------- 0 1.0 3.0 79 79
r 0.39668 1 2 cbr 210 ------- 0 1.0 3.0 76 76
+ 0.39668 2 3 cbr 210 ------- 0 1.0 3.0 76 76
- 0.39668 2 3 cbr 210 ------- 0 1.0 3.0 76 76
r 0.39879 2 3 cbr 210 ------- 0 1.0 3.0 73 73
+ 0.4 1 2 cbr 210 ------- 0 1.0 3.0 80 80
- 0.4 1 2 cbr 210 ------- 0 1.0 3.0 80 80
r 0.40043 1 2 cbr 210 ------- 0 1.0 3.0 77 77
+ 0.40043 2 3 cbr 210 ------- 0 1.0 3.0 77 77
- 0.40043 2 3 cbr 210 ------- 0 1.0 3.0 77 77
r 0.40254 2 3 cbr 210 ------- 0 1.0 3.0 74 74
+ 0.40375 1 2 cbr 210 ------- 0 1.0 3.0 81 81
- 0.40375 1 2 cbr 210 ------- 0 1.0 3.0 81 81
r 0.40418 1 2 cbr 210 ------- 0 1.0 3.0 78 78
+ 0.40418 2 3 cbr 210 ------- 0 1.0 3.0 78 78
- 0.40418 2 3 cbr 210 ------- 0 1.0 3.0 78 78
r 0.40629 2 3 cbr 210 ------- 0 1.0 3.0 75 75
+ 0.4075 1 2 cbr 210 ------- 0 1.0 3.0 82 82
- 0.4075 1 2 cbr 210 ------- 0 1.0 3.0 82 82
r 0.40793 1 2 cbr 210 ------- 0 1.0 3.0 79 79
+ 0.40793 2 3 cbr 210 ------- 0 1.0 3.0 79 79
- 0.40793 2 3 cbr 210 ------- 0 1.0 3.0 79 79
r 0.41004 2 3 cbr 210 ------- 0 1.0 3.0 76 76
+ 0.41125 1 2 cbr 210 ------- 0 1.0 3.0 83 83
- 0.41125 1 2 cbr 210 ------- 0 1.0 3.0 83 83
r 0.41168 1 2 cbr 210 ------- 0 1.0 3.0 80 80
+ 0.41168 2 3 cbr 210 ------- 0 1.0 3.0 80 80
- 0.41168 2 3 cbr 210 ------- 0 1.0 3.0 80 80
r 0.41379 2 3 cbr 210 ------- 0 1.0 3.0 77 77
+ 0.415 1 2 cbr 210 ------- 0 1.0 3.0 84 84
- 0.415 1 2 cbr 210 ------- 0 1.0 3.0 84 84
r 0.41543 1 2 cbr 210 ------- 0 1.0 3.0 81 81
+ 0.41543 2 3 cbr 210 ------- 0 1.0 3.0 81 81
- 0.41543 2 3 cbr 210 ------- 0 1.0 3.0 81 81
r 0.41754 2 3 cbr 210 ------- 0 1.0 3.0 78 78
+ 0.41875 1 2 cbr 210 ------- 0 1.0 3.0 85 85
- 0.41875 1 2 cbr 210 ------- 0 1.0 3.0 85 85
r 0.41918 1 2 cbr 210 ------- 0 1.0 3.0 82 82
+ 0.41918 2 3 cbr 210 ------- 0 1.0 3.0 82 82
- 0.41918 2 3 cbr 210 ------- 0 1.0 3.0 82 82
r 0.42129 2 3 cbr 210 ------- 0 1.0 3.0 79 79
+ 0.4225 1 2 cbr 210 ------- 0 1.0 3.0 86 86
- 0.4225 1 2 cbr 210 ------- 0 1.0 3.0 86 86
r 0.42293 1 2 cbr 210 ------- 0 1.0 3.0 83 83
+ 0.42293 2 3 cbr 210 ------- 0 1.0 3.0 83 83
- 0.42293 2 3 cbr 210 ------- 0 1.0 3.0 83 83
r 0.42504 2 3 cbr 210 ------- 0 1.0 3.0 80 80
+ 0.42625 1 2 cbr 210 ------- 0 1.0 3.0 87 87
- 0.42625 1 2 cbr 210 ------- 0 1.0 3.0 87 87
r 0.42668 1 2 cbr 210 ------- 0 1.0 3.0 84 84
+ 0.42668 2 3 cbr 210 ------- 0 1.0 3.0 84 84
- 0.42668 2 3 cbr 210 ------- 0 1.0 3.0 84 84
r 0.42879 2 3 cbr 210 ------- 0 1.0 3.0 81 81
+ 0.43 1 2 cbr 210 ------- 0 1.0 3.0 88 88
- 0.43 1 2 cbr 210 ------- 0 1.0 3.0 88 88
r 0.43043 1 2 cbr 210 ------- 0 1.0 3.0 85 85
+ 0.43043 2 3 cbr 210 ------- 0 1.0 3.0 85 85
- 0.43043 2 3 cbr 210 ------- 0 1.0 3.0 85 85
r 0.43254 2 3 cbr 210 ------- 0 1.0 3.0 82 82
+ 0.43375 1 2 cbr 210 ------- 0 1.0 3.0 89 89
- 0.43375 1 2 cbr 210 ------- 0 1.0 3.0 89 89
r 0.43418 1 2 cbr 210 ------- 0 1.0 3.0 86 86
+ 0.43418 2 3 cbr 210 ------- 0 1.0 3.0 86 86
- 0.43418 2 3 cbr 210 ------- 0 1.0 3.0 86 86
r 0.43629 2 3 cbr 210 ------- 0 1.0 3.0 83 83
+ 0.4375 1 2 cbr 210 ------- 0 1.0 3.0 90 90
- 0.4375 1 2 cbr 210 ------- 0 1.0 3.0 90 90
r 0.43793 1 2 cbr 210 ------- 0 1.0 3.0 87 87
+ 0.43793 2 3 cbr 210 ------- 0 1.0 3.0 87 87
- 0.43793 2 3 cbr 210 ------- 0 1.0 3.0 87 87
r 0.44004 2 3 cbr 210 ------- 0 1.0 3.0 84 84
+ 0.44125 1 2 cbr 210 ------- 0 1.0 3.0 91 91
- 0.44125 1 2 cbr 210 ------- 0 1.0 3.0 91 91
r 0.44168 1 2 cbr 210 ------- 0 1.0 3.0 88 88
+ 0.44168 2 3 cbr 210 ------- 0 1.0 3.0 88 88
- 0.44168 2 3 cbr 210 ------- 0 1.0 3.0 88 88
r 0.44379 2 3 cbr 210 ------- 0 1.0 3.0 85 85
+ 0.445 1 2 cbr 210 ------- 0 1.0 3.0 92 92
- 0.445 1 2 cbr 210 ------- 0 1.0 3.0 92 92
r 0.44543 1 2 cbr 210 ------- 0 1.0 3.0 89 89
+ 0.44543 2 3 cbr 210 ------- 0 1.0 3.0 89 89
- 0.44543 2 3 cbr 210 ------- 0 1.0 3.0 89 89
r 0.44754 2 3 cbr 210 ------- 0 1.0 3.0 86 86
+ 0.44875 1 2 cbr 210 ------- 0 1.0 3.0 93 93
- 0.44875 1 2 cbr 210 ------- 0 1.0 3.0 93 93
r 0.44918 1 2 cbr 210 ------- 0 1.0 3.0 90 90
+ 0.44918 2 3 cbr 210 ------- 0 1.0 3.0 90 90
- 0.44918 2 3 cbr 210 ------- 0 1.0 3.0 90 90
r 0.45129 2 3 cbr 210 ------- 0 1.0 3.0 87 87
+ 0.4525 1 2 cbr 210 ------- 0 1.0 3.0 94 94
- 0.4525 1 2 cbr 210 ------- 0 1.0 3.0 94 94
r 0.45293 1 2 cbr 210 ------- 0 1.0 3.0 91 91
+ 0.45293 2 3 cbr 210 ------- 0 1.0 3.0 91 91
- 0.45293 2 3 cbr 210 ------- 0 1.0 3.0 91 91
r 0.45504 2 3 cbr 210 ------- 0 1.0 3.0 88 88
+ 0.45625 1 2 cbr 210 ------- 0 1.0 3.0 95 95
- 0.45625 1 2 cbr 210 ------- 0 1.0 3.0 95 95
r 0.45668 1 2 cbr 210 ------- 0 1.0 3.0 92 92
+ 0.45668 2 3 cbr 210 ------- 0 1.0 3.0 92 92
- 0.45668 2 3 cbr 210 ------- 0 1.0 3.0 92 92
r 0.45879 2 3 cbr 210 ------- 0 1.0 3.0 89 89
+ 0.46 1 2 cbr 210 ------- 0 1.0 3.0 96 96
- 0.46 1 2 cbr 210 ------- 0 1.0 3.0 96 96
r 0.46043 1 2 cbr 210 ------- 0 1.0 3.0 93 93
+ 0.46043 2 3 cbr 210 ------- 0 1.0 3.0 93 93
- 0.46043 2 3 cbr 210 ------- 0 1.0 3.0 93 93
r 0.46254 2 3 cbr 210 ------- 0 1.0 3.0 90 90
+ 0.46375 1 2 cbr 210 ------- 0 1.0 3.0 97 97
- 0.46375 1 2 cbr 210 ------- 0 1.0 3.0 97 97
r 0.46418 1 2 cbr 210 ------- 0 1.0 3.0 94 94
+ 0.46418 2 3 cbr 210 ------- 0 1.0 3.0 94 94
- 0.46418 2 3 cbr 210 ------- 0 1.0 3.0 94 94
r 0.46629 2 3 cbr 210 ------- 0 1.0 3.0 91 91
+ 0.4675 1 2 cbr 210 ------- 0 1.0 3.0 98 98
- 0.4675 1 2 cbr 210 ------- 0 1.0 3.0 98 98
r 0.46793 1 2 cbr 210 ------- 0 1.0 3.0 95 95
+ 0.46793 2 3 cbr 210 ------- 0 1.0 3.0 95 95
- 0.46793 2 3 cbr 210 ------- 0 1.0 3.0 95 95
r 0.47004 2 3 cbr 210 ------- 0 1.0 3.0 92 92
+ 0.47125 1 2 cbr 210 ------- 0 1.0 3.0 99 99
- 0.47125 1 2 cbr 210 ------- 0 1.0 3.0 99 99
r 0.47168 1 2 cbr 210 ------- 0 1.0 3.0 96 96
+ 0.47168 2 3 cbr 210 ------- 0 1.0 3.0 96 96
- 0.47168 2 3 cbr 210 ------- 0 1.0 3.0 96 96
r 0.47379 2 3 cbr 210 ------- 0 1.0 3.0 93 93
+ 0.475 1 2 cbr 210 ------- 0 1.0 3.0 100 100
- 0.475 1 2 cbr 210 ------- 0 1.0 3.0 100 100
r 0.47543 1 2 cbr 210 ------- 0 1.0 3.0 97 97
+ 0.47543 2 3 cbr 210 ------- 0 1.0 3.0 97 97
- 0.47543 2 3 cbr 210 ------- 0 1.0 3.0 97 97
r 0.47754 2 3 cbr 210 ------- 0 1.0 3.0 94 94
+ 0.47875 1 2 cbr 210 ------- 0 1.0 3.0 101 101
- 0.47875 1 2 cbr 210 ------- 0 1.0 3.0 101 101
r 0.47918 1 2 cbr 210 ------- 0 1.0 3.0 98 98
+ 0.47918 2 3 cbr 210 ------- 0 1.0 3.0 98 98
- 0.47918 2 3 cbr 210 ------- 0 1.0 3.0 98 98
r 0.48129 2 3 cbr 210 ------- 0 1.0 3.0 95 95
+ 0.4825 1 2 cbr 210 ------- 0 1.0 3.0 102 102
- 0.4825 1 2 cbr 210 ------- 0 1.0 3.0 102 102
r 0.48293 1 2 cbr 210 ------- 0 1.0 3.0 99 99
+ 0.48293 2 3 cbr 210 ------- 0 1.0 3.0 99 99
- 0.48293 2 3 cbr 210 ------- 0 1.0 3.0 99 99
r 0.48504 2 3 cbr 210 ------- 0 1.0 3.0 96 96
+ 0.48625 1 2 cbr 210 ------- 0 1.0 3.0 103 103
- 0.48625 1 2 cbr 210 ------- 0 1.0 3.0 103 103
r 0.48668 1 2 cbr 210 ------- 0 1.0 3.0 100 100
+ 0.48668 2 3 cbr 210 ------- 0 1.0 3.0 100 100
- 0.48668 2 3 cbr 210 ------- 0 1.0 3.0 100 100
r 0.48879 2 3 cbr 210 ------- 0 1.0 3.0 97 97
+ 0.49 1 2 cbr 210 ------- 0 1.0 3.0 104 104
- 0.49 1 2 cbr 210 ------- 0 1.0 3.0 104 104
r 0.49043 1 2 cbr 210 ------- 0 1.0 3.0 101 101
+ 0.49043 2 3 cbr 210 ------- 0 1.0 3.0 101 101
- 0.49043 2 3 cbr 210 ------- 0 1.0 3.0 101 101
r 0.49254 2 3 cbr 210 ------- 0 1.0 3.0 98 98
+ 0.49375 1 2 cbr 210 ------- 0 1.0 3.0 105 105
- 0.49375 1 2 cbr 210 ------- 0 1.0 3.0 105 105
r 0.49418 1 2 cbr 210 ------- 0 1.0 3.0 102 102
+ 0.49418 2 3 cbr 210 ------- 0 1.0 3.0 102 102
- 0.49418 2 3 cbr 210 ------- 0 1.0 3.0 102 102
r 0.49629 2 3 cbr 210 ------- 0 1.0 3.0 99 99
+ 0.4975 1 2 cbr 210 ------- 0 1.0 3.0 106 106
- 0.4975 1 2 cbr 210 ------- 0 1.0 3.0 106 106
r 0.49793 1 2 cbr 210 ------- 0 1.0 3.0 103 103
+ 0.49793 2 3 cbr 210 ------- 0 1.0 3.0 103 103
- 0.49793 2 3 cbr 210 ------- 0 1.0 3.0 103 103
r 0.50004 2 3 cbr 210 ------- 0 1.0 3.0 100 100
+ 0.50125 1 2 cbr 210 ------- 0 1.0 3.0 107 107
- 0.50125 1 2 cbr 210 ------- 0 1.0 3.0 107 107
r 0.50168 1 2 cbr 210 ------- 0 1.0 3.0 104 104
+ 0.50168 2 3 cbr 210 ------- 0 1.0 3.0 104 104
- 0.50168 2 3 cbr 210 ------- 0 1.0 3.0 104 104
r 0.50379 2 3 cbr 210 ------- 0 1.0 3.0 101 101
+ 0.505 1 2 cbr 210 ------- 0 1.0 3.0 108 108
- 0.505 1 2 cbr 210 ------- 0 1.0 3.0 108 108
r 0.50543 1 2 cbr 210 ------- 0 1.0 3.0 105 105
+ 0.50543 2 3 cbr 210 ------- 0 1.0 3.0 105 105
- 0.50543 2 3 cbr 210 ------- 0 1.0 3.0 105 105
r 0.50754 2 3 cbr 210 ------- 0 1.0 3.0 102 102
+ 0.50875 1 2 cbr 210 ------- 0 1.0 3.0 109 109
- 0.50875 1 2 cbr 210 ------- 0 1.0 3.0 109 109
r 0.50918 1 2 cbr 210 ------- 0 1.0 3.0 106 106
+ 0.50918 2 3 cbr 210 ------- 0 1.0 3.0 106 106
- 0.50918 2 3 cbr 210 ------- 0 1.0 3.0 106 106
r 0.51129 2 3 cbr 210 ------- 0 1.0 3.0 103 103
+ 0.5125 1 2 cbr 210 ------- 0 1.0 3.0 110 110
- 0.5125 1 2 cbr 210 ------- 0 1.0 3.0 110 110
r 0.51293 1 2 cbr 210 ------- 0 1.0 3.0 107 107
+ 0.51293 2 3 cbr 210 ------- 0 1.0 3.0 107 107
- 0.51293 2 3 cbr 210 ------- 0 1.0 3.0 107 107
r 0.51504 2 3 cbr 210 ------- 0 1.0 3.0 104 104
+ 0.51625 1 2 cbr 210 ------- 0 1.0 3.0 111 111
- 0.51625 1 2 cbr 210 ------- 0 1.0 3.0 111 111
r 0.51668 1 2 cbr 210 ------- 0 1.0 3.0 108 108
+ 0.51668 2 3 cbr 210 ------- 0 1.0 3.0 108 108
- 0.51668 2 3 cbr 210 ------- 0 1.0 3.0 108 108