+ 0.1 1 2 cbr 1000 ------- 0 1.0 3.0 0 0
- 0.1 1 2 cbr 1000 ------- 0 1.0 3.0 0 0
+ 0.1 1 2 cbr 500 ------- 0 1.0 3.0 1 1
- 0.108 1 2 cbr 500 ------- 0 1.0 3.0 1 1
r 0.118 1 2 cbr 1000 ------- 0 1.0 3.0 0 0
+ 0.118 2 3 cbr 1000 ------- 0 1.0 3.0 0 0
- 0.118 2 3 cbr 1000 ------- 0 1.0 3.0 0 0
r 0.122 1 2 cbr 500 ------- 0 1.0 3.0 1 1
+ 0.122 2 3 cbr 500 ------- 0 1.0 3.0 1 1
- 0.123333 2 3 cbr 500 ------- 0 1.0 3.0 1 1
r 0.133333 2 3 cbr 1000 ------- 0 1.0 3.0 0 0
r 0.136 2 3 cbr 500 ------- 0 1.0 3.0 1 1
+ 0.2 1 2 cbr 1000 ------- 0 1.0 3.0 2 2
- 0.2 1 2 cbr 1000 ------- 0 1.0 3.0 2 2
+ 0.2 1 2 cbr 500 ------- 0 1.0 3.0 3 3
- 0.208 1 2 cbr 500 ------- 0 1.0 3.0 3 3
r 0.218 1 2 cbr 1000 ------- 0 1.0 3.0 2 2
+ 0.218 2 3 cbr 1000 ------- 0 1.0 3.0 2 2
- 0.218 2 3 cbr 1000 ------- 0 1.0 3.0 2 2
r 0.222 1 2 cbr 500 ------- 0 1.0 3.0 3 3
+ 0.222 2 3 cbr 500 ------- 0 1.0 3.0 3 3
- 0.223333 2 3 cbr 500 ------- 0 1.0 3.0 3 3
r 0.233333 2 3 cbr 1000 ------- 0 1.0 3.0 2 2
r 0.236 2 3 cbr 500 ------- 0 1.0 3.0 3 3
+ 0.3 1 2 cbr 1000 ------- 0 1.0 3.0 4 4
- 0.3 1 2 cbr 1000 ------- 0 1.0 3.0 4 4
+ 0.3 1 2 cbr 500 ------- 0 1.0 3.0 5 5
- 0.308 1 2 cbr 500 ------- 0 1.0 3.0 5 5
r 0.318 1 2 cbr 1000 ------- 0 1.0 3.0 4 4
+ 0.318 2 3 cbr 1000 ------- 0 1.0 3.0 4 4
- 0.318 2 3 cbr 1000 ------- 0 1.0 3.0 4 4
r 0.322 1 2 cbr 500 ------- 0 1.0 3.0 5 5
+ 0.322 2 3 cbr 500 ------- 0 1.0 3.0 5 5
- 0.323333 2 3 cbr 500 ------- 0 1.0 3.0 5 5
r 0.333333 2 3 cbr 1000 ------- 0 1.0 3.0 4 4
r 0.336 2 3 cbr 500 ------- 0 1.0 3.0 5 5
+ 0.4 1 2 cbr 1000 ------- 0 1.0 3.0 6 6
- 0.4 1 2 cbr 1000 ------- 0 1.0 3.0 6 6
+ 0.4 1 2 cbr 500 ------- 0 1.0 3.0 7 7
- 0.408 1 2 cbr 500 ------- 0 1.0 3.0 7 7
r 0.418 1 2 cbr 1000 ------- 0 1.0 3.0 6 6
+ 0.418 2 3 cbr 1000 ------- 0 1.0 3.0 6 6
- 0.418 2 3 cbr 1000 ------- 0 1.0 3.0 6 6
r 0.422 1 2 cbr 500 ------- 0 1.0 3.0 7 7
+ 0.422 2 3 cbr 500 ------- 0 1.0 3.0 7 7
- 0.423333 2 3 cbr 500 ------- 0 1.0 3.0 7 7
r 0.433333 2 3 cbr 1000 ------- 0 1.0 3.0 6 6
r 0.436 2 3 cbr 500 ------- 0 1.0 3.0 7 7
+ 0.5 1 2 cbr 1000 ------- 0 1.0 3.0 8 8
- 0.5 1 2 cbr 1000 ------- 0 1.0 3.0 8 8
+ 0.5 1 2 cbr 500 ------- 0 1.0 3.0 9 9
- 0.508 1 2 cbr 500 ------- 0 1.0 3.0 9 9
r 0.518 1 2 cbr 1000 ------- 0 1.0 3.0 8 8
+ 0.518 2 3 cbr 1000 ------- 0 1.0 3.0 8 8
- 0.518 2 3 cbr 1000 ------- 0 1.0 3.0 8 8
r 0.522 1 2 cbr 500 ------- 0 1.0 3.0 9 9
+ 0.522 2 3 cbr 500 ------- 0 1.0 3.0 9 9
- 0.523333 2 3 cbr 500 ------- 0 1.0 3.0 9 9
r 0.533333 2 3 cbr 1000 ------- 0 1.0 3.0 8 8
r 0.536 2 3 cbr 500 ------- 0 1.0 3.0 9 9
+ 0.6 1 2 cbr 1000 ------- 0 1.0 3.0 10 10
- 0.6 1 2 cbr 1000 ------- 0 1.0 3.0 10 10
+ 0.6 1 2 cbr 500 ------- 0 1.0 3.0 11 11
- 0.608 1 2 cbr 500 ------- 0 1.0 3.0 11 11
r 0.618 1 2 cbr 1000 ------- 0 1.0 3.0 10 10
+ 0.618 2 3 cbr 1000 ------- 0 1.0 3.0 10 10
- 0.618 2 3 cbr 1000 ------- 0 1.0 3.0 10 10
r 0.622 1 2 cbr 500 ------- 0 1.0 3.0 11 11
+ 0.622 2 3 cbr 500 ------- 0 1.0 3.0 11 11
- 0.623333 2 3 cbr 500 ------- 0 1.0 3.0 11 11
r 0.633333 2 3 cbr 1000 ------- 0 1.0 3.0 10 10
r 0.636 2 3 cbr 500 ------- 0 1.0 3.0 11 11
+ 0.7 1 2 cbr 1000 ------- 0 1.0 3.0 12 12
- 0.7 1 2 cbr 1000 ------- 0 1.0 3.0 12 12
+ 0.7 1 2 cbr 500 ------- 0 1.0 3.0 13 13
- 0.708 1 2 cbr 500 ------- 0 1.0 3.0 13 13
r 0.718 1 2 cbr 1000 ------- 0 1.0 3.0 12 12
+ 0.718 2 3 cbr 1000 ------- 0 1.0 3.0 12 12
- 0.718 2 3 cbr 1000 ------- 0 1.0 3.0 12 12
r 0.722 1 2 cbr 500 ------- 0 1.0 3.0 13 13
+ 0.722 2 3 cbr 500 ------- 0 1.0 3.0 13 13
- 0.723333 2 3 cbr 500 ------- 0 1.0 3.0 13 13
r 0.733333 2 3 cbr 1000 ------- 0 1.0 3.0 12 12
r 0.736 2 3 cbr 500 ------- 0 1.0 3.0 13 13
+ 0.8 1 2 cbr 1000 ------- 0 1.0 3.0 14 14
- 0.8 1 2 cbr 1000 ------- 0 1.0 3.0 14 14
+ 0.8 1 2 cbr 500 ------- 0 1.0 3.0 15 15
- 0.808 1 2 cbr 500 ------- 0 1.0 3.0 15 15
r 0.818 1 2 cbr 1000 ------- 0 1.0 3.0 14 14
+ 0.818 2 3 cbr 1000 ------- 0 1.0 3.0 14 14
- 0.818 2 3 cbr 1000 ------- 0 1.0 3.0 14 14
r 0.822 1 2 cbr 500 ------- 0 1.0 3.0 15 15
+ 0.822 2 3 cbr 500 ------- 0 1.0 3.0 15 15
- 0.823333 2 3 cbr 500 ------- 0 1.0 3.0 15 15
r 0.833333 2 3 cbr 1000 ------- 0 1.0 3.0 14 14
r 0.836 2 3 cbr 500 ------- 0 1.0 3.0 15 15
+ 0.9 1 2 cbr 1000 ------- 0 1.0 3.0 16 16
- 0.9 1 2 cbr 1000 ------- 0 1.0 3.0 16 16
+ 0.9 1 2 cbr 500 ------- 0 1.0 3.0 17 17
- 0.908 1 2 cbr 500 ------- 0 1.0 3.0 17 17
r 0.918 1 2 cbr 1000 ------- 0 1.0 3.0 16 16
+ 0.918 2 3 cbr 1000 ------- 0 1.0 3.0 16 16
- 0.918 2 3 cbr 1000 ------- 0 1.0 3.0 16 16
r 0.922 1 2 cbr 500 ------- 0 1.0 3.0 17 17
+ 0.922 2 3 cbr 500 ------- 0 1.0 3.0 17 17
- 0.923333 2 3 cbr 500 ------- 0 1.0 3.0 17 17
r 0.933333 2 3 cbr 1000 ------- 0 1.0 3.0 16 16
r 0.936 2 3 cbr 500 ------- 0 1.0 3.0 17 17
+ 1 1 2 cbr 1000 ------- 0 1.0 3.0 18 18
- 1 1 2 cbr 1000 ------- 0 1.0 3.0 18 18
+ 1 1 2 cbr 500 ------- 0 1.0 3.0 19 19
+ 1 0 2 tcp 40 ------- 1 0.0 3.1 0 20
- 1 0 2 tcp 40 ------- 1 0.0 3.1 0 20
- 1.008 1 2 cbr 500 ------- 0 1.0 3.0 19 19
r 1.01032 0 2 tcp 40 ------- 1 0.0 3.1 0 20
+ 1.01032 2 3 tcp 40 ------- 1 0.0 3.1 0 20
- 1.01032 2 3 tcp 40 ------- 1 0.0 3.1 0 20
r 1.018 1 2 cbr 1000 ------- 0 1.0 3.0 18 18
+ 1.018 2 3 cbr 1000 ------- 0 1.0 3.0 18 18
- 1.018 2 3 cbr 1000 ------- 0 1.0 3.0 18 18
r 1.020533 2 3 tcp 40 ------- 1 0.0 3.1 0 20
+ 1.020533 3 2 ack 40 ------- 1 3.1 0.0 0 21
- 1.020533 3 2 ack 40 ------- 1 3.1 0.0 0 21
r 1.022 1 2 cbr 500 ------- 0 1.0 3.0 19 19
+ 1.022 2 3 cbr 500 ------- 0 1.0 3.0 19 19
- 1.023333 2 3 cbr 500 ------- 0 1.0 3.0 19 19
r 1.030747 3 2 ack 40 ------- 1 3.1 0.0 0 21
+ 1.030747 2 0 ack 40 ------- 1 3.1 0.0 0 21
- 1.030747 2 0 ack 40 ------- 1 3.1 0.0 0 21
r 1.033333 2 3 cbr 1000 ------- 0 1.0 3.0 18 18
r 1.036 2 3 cbr 500 ------- 0 1.0 3.0 19 19
r 1.041067 2 0 ack 40 ------- 1 3.1 0.0 0 21
+ 1.041067 0 2 tcp 1040 ------- 1 0.0 3.1 1 22
- 1.041067 0 2 tcp 1040 ------- 1 0.0 3.1 1 22
+ 1.041067 0 2 tcp 1040 ------- 1 0.0 3.1 2 23
- 1.049387 0 2 tcp 1040 ------- 1 0.0 3.1 2 23
r 1.059387 0 2 tcp 1040 ------- 1 0.0 3.1 1 22
+ 1.059387 2 3 tcp 1040 ------- 1 0.0 3.1 1 22
- 1.059387 2 3 tcp 1040 ------- 1 0.0 3.1 1 22
r 1.067707 0 2 tcp 1040 ------- 1 0.0 3.1 2 23
+ 1.067707 2 3 tcp 1040 ------- 1 0.0 3.1 2 23
- 1.067707 2 3 tcp 1040 ------- 1 0.0 3.1 2 23
r 1.074933 2 3 tcp 1040 ------- 1 0.0 3.1 1 22
+ 1.074933 3 2 ack 40 ------- 1 3.1 0.0 1 24
- 1.074933 3 2 ack 40 ------- 1 3.1 0.0 1 24
r 1.083253 2 3 tcp 1040 ------- 1 0.0 3.1 2 23
+ 1.083253 3 2 ack 40 ------- 1 3.1 0.0 2 25
- 1.083253 3 2 ack 40 ------- 1 3.1 0.0 2 25
r 1.085147 3 2 ack 40 ------- 1 3.1 0.0 1 24
+ 1.085147 2 0 ack 40 ------- 1 3.1 0.0 1 24
- 1.085147 2 0 ack 40 ------- 1 3.1 0.0 1 24
r 1.093467 3 2 ack 40 ------- 1 3.1 0.0 2 25
+ 1.093467 2 0 ack 40 ------- 1 3.1 0.0 2 25
- 1.093467 2 0 ack 40 ------- 1 3.1 0.0 2 25
r 1.095467 2 0 ack 40 ------- 1 3.1 0.0 1 24
+ 1.095467 0 2 tcp 1040 ------- 1 0.0 3.1 3 26
- 1.095467 0 2 tcp 1040 ------- 1 0.0 3.1 3 26
+ 1.095467 0 2 tcp 1040 ------- 1 0.0 3.1 4 27
+ 1.1 1 2 cbr 1000 ------- 0 1.0 3.0 20 28
- 1.1 1 2 cbr 1000 ------- 0 1.0 3.0 20 28
+ 1.1 1 2 cbr 500 ------- 0 1.0 3.0 21 29
r 1.103787 2 0 ack 40 ------- 1 3.1 0.0 2 25
+ 1.103787 0 2 tcp 1040 ------- 1 0.0 3.1 5 30
+ 1.103787 0 2 tcp 1040 ------- 1 0.0 3.1 6 31
- 1.103787 0 2 tcp 1040 ------- 1 0.0 3.1 4 27
- 1.108 1 2 cbr 500 ------- 0 1.0 3.0 21 29
- 1.112107 0 2 tcp 1040 ------- 1 0.0 3.1 5 30
r 1.113787 0 2 tcp 1040 ------- 1 0.0 3.1 3 26
+ 1.113787 2 3 tcp 1040 ------- 1 0.0 3.1 3 26
- 1.113787 2 3 tcp 1040 ------- 1 0.0 3.1 3 26
r 1.118 1 2 cbr 1000 ------- 0 1.0 3.0 20 28
+ 1.118 2 3 cbr 1000 ------- 0 1.0 3.0 20 28
- 1.119333 2 3 cbr 1000 ------- 0 1.0 3.0 20 28
- 1.120427 0 2 tcp 1040 ------- 1 0.0 3.1 6 31
r 1.122 1 2 cbr 500 ------- 0 1.0 3.0 21 29
+ 1.122 2 3 cbr 500 ------- 0 1.0 3.0 21 29
r 1.122107 0 2 tcp 1040 ------- 1 0.0 3.1 4 27
+ 1.122107 2 3 tcp 1040 ------- 1 0.0 3.1 4 27
- 1.124667 2 3 cbr 500 ------- 0 1.0 3.0 21 29
- 1.127333 2 3 tcp 1040 ------- 1 0.0 3.1 4 27
r 1.129333 2 3 tcp 1040 ------- 1 0.0 3.1 3 26
+ 1.129333 3 2 ack 40 ------- 1 3.1 0.0 3 32
- 1.129333 3 2 ack 40 ------- 1 3.1 0.0 3 32
r 1.130427 0 2 tcp 1040 ------- 1 0.0 3.1 5 30
+ 1.130427 2 3 tcp 1040 ------- 1 0.0 3.1 5 30
- 1.13288 2 3 tcp 1040 ------- 1 0.0 3.1 5 30
r 1.134667 2 3 cbr 1000 ------- 0 1.0 3.0 20 28
r 1.137333 2 3 cbr 500 ------- 0 1.0 3.0 21 29
r 1.138747 0 2 tcp 1040 ------- 1 0.0 3.1 6 31
+ 1.138747 2 3 tcp 1040 ------- 1 0.0 3.1 6 31
- 1.138747 2 3 tcp 1040 ------- 1 0.0 3.1 6 31
r 1.139547 3 2 ack 40 ------- 1 3.1 0.0 3 32
+ 1.139547 2 0 ack 40 ------- 1 3.1 0.0 3 32
- 1.139547 2 0 ack 40 ------- 1 3.1 0.0 3 32
r 1.14288 2 3 tcp 1040 ------- 1 0.0 3.1 4 27
+ 1.14288 3 2 ack 40 ------- 1 3.1 0.0 4 33
- 1.14288 3 2 ack 40 ------- 1 3.1 0.0 4 33
r 1.148427 2 3 tcp 1040 ------- 1 0.0 3.1 5 30
+ 1.148427 3 2 ack 40 ------- 1 3.1 0.0 5 34
- 1.148427 3 2 ack 40 ------- 1 3.1 0.0 5 34
r 1.149867 2 0 ack 40 ------- 1 3.1 0.0 3 32
+ 1.149867 0 2 tcp 1040 ------- 1 0.0 3.1 7 35
- 1.149867 0 2 tcp 1040 ------- 1 0.0 3.1 7 35
+ 1.149867 0 2 tcp 1040 ------- 1 0.0 3.1 8 36
r 1.153093 3 2 ack 40 ------- 1 3.1 0.0 4 33
+ 1.153093 2 0 ack 40 ------- 1 3.1 0.0 4 33
- 1.153093 2 0 ack 40 ------- 1 3.1 0.0 4 33
r 1.154293 2 3 tcp 1040 ------- 1 0.0 3.1 6 31
+ 1.154293 3 2 ack 40 ------- 1 3.1 0.0 6 37
- 1.154293 3 2 ack 40 ------- 1 3.1 0.0 6 37
- 1.158187 0 2 tcp 1040 ------- 1 0.0 3.1 8 36
r 1.15864 3 2 ack 40 ------- 1 3.1 0.0 5 34
+ 1.15864 2 0 ack 40 ------- 1 3.1 0.0 5 34
- 1.15864 2 0 ack 40 ------- 1 3.1 0.0 5 34
r 1.163413 2 0 ack 40 ------- 1 3.1 0.0 4 33
+ 1.163413 0 2 tcp 1040 ------- 1 0.0 3.1 9 38
+ 1.163413 0 2 tcp 1040 ------- 1 0.0 3.1 10 39
r 1.164507 3 2 ack 40 ------- 1 3.1 0.0 6 37
+ 1.164507 2 0 ack 40 ------- 1 3.1 0.0 6 37
- 1.164507 2 0 ack 40 ------- 1 3.1 0.0 6 37
- 1.166507 0 2 tcp 1040 ------- 1 0.0 3.1 9 38
r 1.168187 0 2 tcp 1040 ------- 1 0.0 3.1 7 35
+ 1.168187 2 3 tcp 1040 ------- 1 0.0 3.1 7 35
- 1.168187 2 3 tcp 1040 ------- 1 0.0 3.1 7 35
r 1.16896 2 0 ack 40 ------- 1 3.1 0.0 5 34
+ 1.16896 0 2 tcp 1040 ------- 1 0.0 3.1 11 40
+ 1.16896 0 2 tcp 1040 ------- 1 0.0 3.1 12 41
r 1.174827 2 0 ack 40 ------- 1 3.1 0.0 6 37
+ 1.174827 0 2 tcp 1040 ------- 1 0.0 3.1 13 42
+ 1.174827 0 2 tcp 1040 ------- 1 0.0 3.1 14 43
- 1.174827 0 2 tcp 1040 ------- 1 0.0 3.1 10 39
r 1.176507 0 2 tcp 1040 ------- 1 0.0 3.1 8 36
+ 1.176507 2 3 tcp 1040 ------- 1 0.0 3.1 8 36
- 1.176507 2 3 tcp 1040 ------- 1 0.0 3.1 8 36
- 1.183147 0 2 tcp 1040 ------- 1 0.0 3.1 11 40
r 1.183733 2 3 tcp 1040 ------- 1 0.0 3.1 7 35
+ 1.183733 3 2 ack 40 ------- 1 3.1 0.0 7 44
- 1.183733 3 2 ack 40 ------- 1 3.1 0.0 7 44
r 1.184827 0 2 tcp 1040 ------- 1 0.0 3.1 9 38
+ 1.184827 2 3 tcp 1040 ------- 1 0.0 3.1 9 38
- 1.184827 2 3 tcp 1040 ------- 1 0.0 3.1 9 38
- 1.191467 0 2 tcp 1040 ------- 1 0.0 3.1 12 41
r 1.192053 2 3 tcp 1040 ------- 1 0.0 3.1 8 36
+ 1.192053 3 2 ack 40 ------- 1 3.1 0.0 8 45
- 1.192053 3 2 ack 40 ------- 1 3.1 0.0 8 45
r 1.193147 0 2 tcp 1040 ------- 1 0.0 3.1 10 39
+ 1.193147 2 3 tcp 1040 ------- 1 0.0 3.1 10 39
- 1.193147 2 3 tcp 1040 ------- 1 0.0 3.1 10 39
r 1.193947 3 2 ack 40 ------- 1 3.1 0.0 7 44
+ 1.193947 2 0 ack 40 ------- 1 3.1 0.0 7 44
- 1.193947 2 0 ack 40 ------- 1 3.1 0.0 7 44
- 1.199787 0 2 tcp 1040 ------- 1 0.0 3.1 13 42
+ 1.2 1 2 cbr 1000 ------- 0 1.0 3.0 22 46
- 1.2 1 2 cbr 1000 ------- 0 1.0 3.0 22 46
+ 1.2 1 2 cbr 500 ------- 0 1.0 3.0 23 47
r 1.200373 2 3 tcp 1040 ------- 1 0.0 3.1 9 38
+ 1.200373 3 2 ack 40 ------- 1 3.1 0.0 9 48
- 1.200373 3 2 ack 40 ------- 1 3.1 0.0 9 48
r 1.201467 0 2 tcp 1040 ------- 1 0.0 3.1 11 40
+ 1.201467 2 3 tcp 1040 ------- 1 0.0 3.1 11 40
- 1.201467 2 3 tcp 1040 ------- 1 0.0 3.1 11 40
r 1.202267 3 2 ack 40 ------- 1 3.1 0.0 8 45
+ 1.202267 2 0 ack 40 ------- 1 3.1 0.0 8 45
- 1.202267 2 0 ack 40 ------- 1 3.1 0.0 8 45
r 1.204267 2 0 ack 40 ------- 1 3.1 0.0 7 44
+ 1.204267 0 2 tcp 1040 ------- 1 0.0 3.1 15 49
+ 1.204267 0 2 tcp 1040 ------- 1 0.0 3.1 16 50
- 1.208 1 2 cbr 500 ------- 0 1.0 3.0 23 47
- 1.208107 0 2 tcp 1040 ------- 1 0.0 3.1 14 43
r 1.208693 2 3 tcp 1040 ------- 1 0.0 3.1 10 39
+ 1.208693 3 2 ack 40 ------- 1 3.1 0.0 10 51
- 1.208693 3 2 ack 40 ------- 1 3.1 0.0 10 51
r 1.209787 0 2 tcp 1040 ------- 1 0.0 3.1 12 41
+ 1.209787 2 3 tcp 1040 ------- 1 0.0 3.1 12 41
- 1.209787 2 3 tcp 1040 ------- 1 0.0 3.1 12 41
r 1.210587 3 2 ack 40 ------- 1 3.1 0.0 9 48
+ 1.210587 2 0 ack 40 ------- 1 3.1 0.0 9 48
- 1.210587 2 0 ack 40 ------- 1 3.1 0.0 9 48
r 1.212587 2 0 ack 40 ------- 1 3.1 0.0 8 45
+ 1.212587 0 2 tcp 1040 ------- 1 0.0 3.1 17 52
+ 1.212587 0 2 tcp 1040 ------- 1 0.0 3.1 18 53
- 1.216427 0 2 tcp 1040 ------- 1 0.0 3.1 15 49
r 1.217013 2 3 tcp 1040 ------- 1 0.0 3.1 11 40
+ 1.217013 3 2 ack 40 ------- 1 3.1 0.0 11 54
- 1.217013 3 2 ack 40 ------- 1 3.1 0.0 11 54
r 1.218 1 2 cbr 1000 ------- 0 1.0 3.0 22 46
+ 1.218 2 3 cbr 1000 ------- 0 1.0 3.0 22 46
- 1.218 2 3 cbr 1000 ------- 0 1.0 3.0 22 46
r 1.218107 0 2 tcp 1040 ------- 1 0.0 3.1 13 42
+ 1.218107 2 3 tcp 1040 ------- 1 0.0 3.1 13 42
r 1.218907 3 2 ack 40 ------- 1 3.1 0.0 10 51
+ 1.218907 2 0 ack 40 ------- 1 3.1 0.0 10 51
- 1.218907 2 0 ack 40 ------- 1 3.1 0.0 10 51
r 1.220907 2 0 ack 40 ------- 1 3.1 0.0 9 48
+ 1.220907 0 2 tcp 1040 ------- 1 0.0 3.1 19 55
+ 1.220907 0 2 tcp 1040 ------- 1 0.0 3.1 20 56
r 1.222 1 2 cbr 500 ------- 0 1.0 3.0 23 47
+ 1.222 2 3 cbr 500 ------- 0 1.0 3.0 23 47
- 1.223333 2 3 tcp 1040 ------- 1 0.0 3.1 13 42
- 1.224747 0 2 tcp 1040 ------- 1 0.0 3.1 16 50
r 1.225333 2 3 tcp 1040 ------- 1 0.0 3.1 12 41
+ 1.225333 3 2 ack 40 ------- 1 3.1 0.0 12 57
- 1.225333 3 2 ack 40 ------- 1 3.1 0.0 12 57
r 1.226427 0 2 tcp 1040 ------- 1 0.0 3.1 14 43
+ 1.226427 2 3 tcp 1040 ------- 1 0.0 3.1 14 43
r 1.227227 3 2 ack 40 ------- 1 3.1 0.0 11 54
+ 1.227227 2 0 ack 40 ------- 1 3.1 0.0 11 54
- 1.227227 2 0 ack 40 ------- 1 3.1 0.0 11 54
- 1.22888 2 3 cbr 500 ------- 0 1.0 3.0 23 47
r 1.229227 2 0 ack 40 ------- 1 3.1 0.0 10 51
+ 1.229227 0 2 tcp 1040 ------- 1 0.0 3.1 21 58
+ 1.229227 0 2 tcp 1040 ------- 1 0.0 3.1 22 59
- 1.231547 2 3 tcp 1040 ------- 1 0.0 3.1 14 43
- 1.233067 0 2 tcp 1040 ------- 1 0.0 3.1 17 52
r 1.233333 2 3 cbr 1000 ------- 0 1.0 3.0 22 46
r 1.234747 0 2 tcp 1040 ------- 1 0.0 3.1 15 49
+ 1.234747 2 3 tcp 1040 ------- 1 0.0 3.1 15 49
r 1.235547 3 2 ack 40 ------- 1 3.1 0.0 12 57
+ 1.235547 2 0 ack 40 ------- 1 3.1 0.0 12 57
- 1.235547 2 0 ack 40 ------- 1 3.1 0.0 12 57
- 1.237093 2 3 tcp 1040 ------- 1 0.0 3.1 15 49
r 1.237547 2 0 ack 40 ------- 1 3.1 0.0 11 54
+ 1.237547 0 2 tcp 1040 ------- 1 0.0 3.1 23 60
+ 1.237547 0 2 tcp 1040 ------- 1 0.0 3.1 24 61
r 1.23888 2 3 tcp 1040 ------- 1 0.0 3.1 13 42
+ 1.23888 3 2 ack 40 ------- 1 3.1 0.0 13 62
- 1.23888 3 2 ack 40 ------- 1 3.1 0.0 13 62
- 1.241387 0 2 tcp 1040 ------- 1 0.0 3.1 18 53
r 1.241547 2 3 cbr 500 ------- 0 1.0 3.0 23 47
r 1.243067 0 2 tcp 1040 ------- 1 0.0 3.1 16 50
+ 1.243067 2 3 tcp 1040 ------- 1 0.0 3.1 16 50
- 1.243067 2 3 tcp 1040 ------- 1 0.0 3.1 16 50
r 1.245867 2 0 ack 40 ------- 1 3.1 0.0 12 57
+ 1.245867 0 2 tcp 1040 ------- 1 0.0 3.1 25 63
+ 1.245867 0 2 tcp 1040 ------- 1 0.0 3.1 26 64
r 1.247093 2 3 tcp 1040 ------- 1 0.0 3.1 14 43
+ 1.247093 3 2 ack 40 ------- 1 3.1 0.0 14 65
- 1.247093 3 2 ack 40 ------- 1 3.1 0.0 14 65
r 1.249093 3 2 ack 40 ------- 1 3.1 0.0 13 62
+ 1.249093 2 0 ack 40 ------- 1 3.1 0.0 13 62
- 1.249093 2 0 ack 40 ------- 1 3.1 0.0 13 62
- 1.249707 0 2 tcp 1040 ------- 1 0.0 3.1 19 55
r 1.251387 0 2 tcp 1040 ------- 1 0.0 3.1 17 52
+ 1.251387 2 3 tcp 1040 ------- 1 0.0 3.1 17 52
- 1.251387 2 3 tcp 1040 ------- 1 0.0 3.1 17 52
r 1.25264 2 3 tcp 1040 ------- 1 0.0 3.1 15 49
+ 1.25264 3 2 ack 40 ------- 1 3.1 0.0 15 66
- 1.25264 3 2 ack 40 ------- 1 3.1 0.0 15 66
r 1.257307 3 2 ack 40 ------- 1 3.1 0.0 14 65
+ 1.257307 2 0 ack 40 ------- 1 3.1 0.0 14 65
- 1.257307 2 0 ack 40 ------- 1 3.1 0.0 14 65
- 1.258027 0 2 tcp 1040 ------- 1 0.0 3.1 20 56
r 1.258613 2 3 tcp 1040 ------- 1 0.0 3.1 16 50
+ 1.258613 3 2 ack 40 ------- 1 3.1 0.0 16 67
- 1.258613 3 2 ack 40 ------- 1 3.1 0.0 16 67
r 1.259413 2 0 ack 40 ------- 1 3.1 0.0 13 62
+ 1.259413 0 2 tcp 1040 ------- 1 0.0 3.1 27 68
+ 1.259413 0 2 tcp 1040 ------- 1 0.0 3.1 28 69
r 1.259707 0 2 tcp 1040 ------- 1 0.0 3.1 18 53
+ 1.259707 2 3 tcp 1040 ------- 1 0.0 3.1 18 53
- 1.259707 2 3 tcp 1040 ------- 1 0.0 3.1 18 53
r 1.262853 3 2 ack 40 ------- 1 3.1 0.0 15 66
+ 1.262853 2 0 ack 40 ------- 1 3.1 0.0 15 66
- 1.262853 2 0 ack 40 ------- 1 3.1 0.0 15 66
- 1.266347 0 2 tcp 1040 ------- 1 0.0 3.1 21 58
r 1.266933 2 3 tcp 1040 ------- 1 0.0 3.1 17 52
+ 1.266933 3 2 ack 40 ------- 1 3.1 0.0 17 70
- 1.266933 3 2 ack 40 ------- 1 3.1 0.0 17 70
r 1.267627 2 0 ack 40 ------- 1 3.1 0.0 14 65
+ 1.267627 0 2 tcp 1040 ------- 1 0.0 3.1 29 71
+ 1.267627 0 2 tcp 1040 ------- 1 0.0 3.1 30 72
r 1.268027 0 2 tcp 1040 ------- 1 0.0 3.1 19 55
+ 1.268027 2 3 tcp 1040 ------- 1 0.0 3.1 19 55
- 1.268027 2 3 tcp 1040 ------- 1 0.0 3.1 19 55
r 1.268827 3 2 ack 40 ------- 1 3.1 0.0 16 67
+ 1.268827 2 0 ack 40 ------- 1 3.1 0.0 16 67
- 1.268827 2 0 ack 40 ------- 1 3.1 0.0 16 67
r 1.273173 2 0 ack 40 ------- 1 3.1 0.0 15 66
+ 1.273173 0 2 tcp 1040 ------- 1 0.0 3.1 31 73
+ 1.273173 0 2 tcp 1040 ------- 1 0.0 3.1 32 74
- 1.274667 0 2 tcp 1040 ------- 1 0.0 3.1 22 59
r 1.275253 2 3 tcp 1040 ------- 1 0.0 3.1 18 53
+ 1.275253 3 2 ack 40 ------- 1 3.1 0.0 18 75
- 1.275253 3 2 ack 40 ------- 1 3.1 0.0 18 75
r 1.276347 0 2 tcp 1040 ------- 1 0.0 3.1 20 56
+ 1.276347 2 3 tcp 1040 ------- 1 0.0 3.1 20 56
- 1.276347 2 3 tcp 1040 ------- 1 0.0 3.1 20 56
r 1.277147 3 2 ack 40 ------- 1 3.1 0.0 17 70
+ 1.277147 2 0 ack 40 ------- 1 3.1 0.0 17 70
- 1.277147 2 0 ack 40 ------- 1 3.1 0.0 17 70
r 1.279147 2 0 ack 40 ------- 1 3.1 0.0 16 67
+ 1.279147 0 2 tcp 1040 ------- 1 0.0 3.1 33 76
+ 1.279147 0 2 tcp 1040 ------- 1 0.0 3.1 34 77
- 1.282987 0 2 tcp 1040 ------- 1 0.0 3.1 23 60
r 1.283573 2 3 tcp 1040 ------- 1 0.0 3.1 19 55
+ 1.283573 3 2 ack 40 ------- 1 3.1 0.0 19 78
- 1.283573 3 2 ack 40 ------- 1 3.1 0.0 19 78
r 1.284667 0 2 tcp 1040 ------- 1 0.0 3.1 21 58
+ 1.284667 2 3 tcp 1040 ------- 1 0.0 3.1 21 58
- 1.284667 2 3 tcp 1040 ------- 1 0.0 3.1 21 58
r 1.285467 3 2 ack 40 ------- 1 3.1 0.0 18 75
+ 1.285467 2 0 ack 40 ------- 1 3.1 0.0 18 75
- 1.285467 2 0 ack 40 ------- 1 3.1 0.0 18 75
r 1.287467 2 0 ack 40 ------- 1 3.1 0.0 17 70
+ 1.287467 0 2 tcp 1040 ------- 1 0.0 3.1 35 79
+ 1.287467 0 2 tcp 1040 ------- 1 0.0 3.1 36 80
- 1.291307 0 2 tcp 1040 ------- 1 0.0 3.1 24 61
r 1.291893 2 3 tcp 1040 ------- 1 0.0 3.1 20 56
+ 1.291893 3 2 ack 40 ------- 1 3.1 0.0 20 81
- 1.291893 3 2 ack 40 ------- 1 3.1 0.0 20 81
r 1.292987 0 2 tcp 1040 ------- 1 0.0 3.1 22 59
+ 1.292987 2 3 tcp 1040 ------- 1 0.0 3.1 22 59
- 1.292987 2 3 tcp 1040 ------- 1 0.0 3.1 22 59
r 1.293787 3 2 ack 40 ------- 1 3.1 0.0 19 78
+ 1.293787 2 0 ack 40 ------- 1 3.1 0.0 19 78
- 1.293787 2 0 ack 40 ------- 1 3.1 0.0 19 78
r 1.295787 2 0 ack 40 ------- 1 3.1 0.0 18 75
+ 1.295787 0 2 tcp 1040 ------- 1 0.0 3.1 37 82
+ 1.295787 0 2 tcp 1040 ------- 1 0.0 3.1 38 83
- 1.299627 0 2 tcp 1040 ------- 1 0.0 3.1 25 63
+ 1.3 1 2 cbr 1000 ------- 0 1.0 3.0 24 84
- 1.3 1 2 cbr 1000 ------- 0 1.0 3.0 24 84
+ 1.3 1 2 cbr 500 ------- 0 1.0 3.0 25 85
r 1.300213 2 3 tcp 1040 ------- 1 0.0 3.1 21 58
+ 1.300213 3 2 ack 40 ------- 1 3.1 0.0 21 86
- 1.300213 3 2 ack 40 ------- 1 3.1 0.0 21 86
r 1.301307 0 2 tcp 1040 ------- 1 0.0 3.1 23 60
+ 1.301307 2 3 tcp 1040 ------- 1 0.0 3.1 23 60
- 1.301307 2 3 tcp 1040 ------- 1 0.0 3.1 23 60
r 1.302107 3 2 ack 40 ------- 1 3.1 0.0 20 81
+ 1.302107 2 0 ack 40 ------- 1 3.1 0.0 20 81
- 1.302107 2 0 ack 40 ------- 1 3.1 0.0 20 81
r 1.304107 2 0 ack 40 ------- 1 3.1 0.0 19 78
+ 1.304107 0 2 tcp 1040 ------- 1 0.0 3.1 39 87
- 1.307947 0 2 tcp 1040 ------- 1 0.0 3.1 26 64
- 1.308 1 2 cbr 500 ------- 0 1.0 3.0 25 85
r 1.308533 2 3 tcp 1040 ------- 1 0.0 3.1 22 59
+ 1.308533 3 2 ack 40 ------- 1 3.1 0.0 22 88
- 1.308533 3 2 ack 40 ------- 1 3.1 0.0 22 88
r 1.309627 0 2 tcp 1040 ------- 1 0.0 3.1 24 61
+ 1.309627 2 3 tcp 1040 ------- 1 0.0 3.1 24 61
- 1.309627 2 3 tcp 1040 ------- 1 0.0 3.1 24 61
r 1.310427 3 2 ack 40 ------- 1 3.1 0.0 21 86
+ 1.310427 2 0 ack 40 ------- 1 3.1 0.0 21 86
- 1.310427 2 0 ack 40 ------- 1 3.1 0.0 21 86
r 1.312427 2 0 ack 40 ------- 1 3.1 0.0 20 81
+ 1.312427 0 2 tcp 1040 ------- 1 0.0 3.1 40 89
- 1.316267 0 2 tcp 1040 ------- 1 0.0 3.1 27 68
r 1.316853 2 3 tcp 1040 ------- 1 0.0 3.1 23 60
+ 1.316853 3 2 ack 40 ------- 1 3.1 0.0 23 90
- 1.316853 3 2 ack 40 ------- 1 3.1 0.0 23 90
r 1.317947 0 2 tcp 1040 ------- 1 0.0 3.1 25 63
+ 1.317947 2 3 tcp 1040 ------- 1 0.0 3.1 25 63
- 1.317947 2 3 tcp 1040 ------- 1 0.0 3.1 25 63
r 1.318 1 2 cbr 1000 ------- 0 1.0 3.0 24 84
+ 1.318 2 3 cbr 1000 ------- 0 1.0 3.0 24 84
r 1.318747 3 2 ack 40 ------- 1 3.1 0.0 22 88
+ 1.318747 2 0 ack 40 ------- 1 3.1 0.0 22 88
- 1.318747 2 0 ack 40 ------- 1 3.1 0.0 22 88
r 1.320747 2 0 ack 40 ------- 1 3.1 0.0 21 86
+ 1.320747 0 2 tcp 1040 ------- 1 0.0 3.1 41 91
r 1.322 1 2 cbr 500 ------- 0 1.0 3.0 25 85
+ 1.322 2 3 cbr 500 ------- 0 1.0 3.0 25 85
- 1.323493 2 3 cbr 1000 ------- 0 1.0 3.0 24 84
- 1.324587 0 2 tcp 1040 ------- 1 0.0 3.1 28 69
r 1.325173 2 3 tcp 1040 ------- 1 0.0 3.1 24 61
+ 1.325173 3 2 ack 40 ------- 1 3.1 0.0 24 92
- 1.325173 3 2 ack 40 ------- 1 3.1 0.0 24 92
r 1.326267 0 2 tcp 1040 ------- 1 0.0 3.1 26 64
+ 1.326267 2 3 tcp 1040 ------- 1 0.0 3.1 26 64
r 1.327067 3 2 ack 40 ------- 1 3.1 0.0 23 90
+ 1.327067 2 0 ack 40 ------- 1 3.1 0.0 23 90
- 1.327067 2 0 ack 40 ------- 1 3.1 0.0 23 90
- 1.328827 2 3 cbr 500 ------- 0 1.0 3.0 25 85
r 1.329067 2 0 ack 40 ------- 1 3.1 0.0 22 88
+ 1.329067 0 2 tcp 1040 ------- 1 0.0 3.1 42 93
- 1.331493 2 3 tcp 1040 ------- 1 0.0 3.1 26 64
- 1.332907 0 2 tcp 1040 ------- 1 0.0 3.1 29 71
r 1.333493 2 3 tcp 1040 ------- 1 0.0 3.1 25 63
+ 1.333493 3 2 ack 40 ------- 1 3.1 0.0 25 94
- 1.333493 3 2 ack 40 ------- 1 3.1 0.0 25 94
r 1.334587 0 2 tcp 1040 ------- 1 0.0 3.1 27 68
+ 1.334587 2 3 tcp 1040 ------- 1 0.0 3.1 27 68
r 1.335387 3 2 ack 40 ------- 1 3.1 0.0 24 92
+ 1.335387 2 0 ack 40 ------- 1 3.1 0.0 24 92
- 1.335387 2 0 ack 40 ------- 1 3.1 0.0 24 92
- 1.33704 2 3 tcp 1040 ------- 1 0.0 3.1 27 68
r 1.337387 2 0 ack 40 ------- 1 3.1 0.0 23 90
+ 1.337387 0 2 tcp 1040 ------- 1 0.0 3.1 43 95
r 1.338827 2 3 cbr 1000 ------- 0 1.0 3.0 24 84
- 1.341227 0 2 tcp 1040 ------- 1 0.0 3.1 30 72
r 1.341493 2 3 cbr 500 ------- 0 1.0 3.0 25 85
r 1.342907 0 2 tcp 1040 ------- 1 0.0 3.1 28 69
+ 1.342907 2 3 tcp 1040 ------- 1 0.0 3.1 28 69
- 1.342907 2 3 tcp 1040 ------- 1 0.0 3.1 28 69
r 1.343707 3 2 ack 40 ------- 1 3.1 0.0 25 94
+ 1.343707 2 0 ack 40 ------- 1 3.1 0.0 25 94
- 1.343707 2 0 ack 40 ------- 1 3.1 0.0 25 94
r 1.345707 2 0 ack 40 ------- 1 3.1 0.0 24 92
+ 1.345707 0 2 tcp 1040 ------- 1 0.0 3.1 44 96
r 1.34704 2 3 tcp 1040 ------- 1 0.0 3.1 26 64
+ 1.34704 3 2 ack 40 ------- 1 3.1 0.0 26 97
- 1.34704 3 2 ack 40 ------- 1 3.1 0.0 26 97
- 1.349547 0 2 tcp 1040 ------- 1 0.0 3.1 31 73
r 1.351227 0 2 tcp 1040 ------- 1 0.0 3.1 29 71
+ 1.351227 2 3 tcp 1040 ------- 1 0.0 3.1 29 71
- 1.351227 2 3 tcp 1040 ------- 1 0.0 3.1 29 71
r 1.352587 2 3 tcp 1040 ------- 1 0.0 3.1 27 68
+ 1.352587 3 2 ack 40 ------- 1 3.1 0.0 27 98
- 1.352587 3 2 ack 40 ------- 1 3.1 0.0 27 98
r 1.354027 2 0 ack 40 ------- 1 3.1 0.0 25 94
+ 1.354027 0 2 tcp 1040 ------- 1 0.0 3.1 45 99
r 1.357253 3 2 ack 40 ------- 1 3.1 0.0 26 97
+ 1.357253 2 0 ack 40 ------- 1 3.1 0.0 26 97
- 1.357253 2 0 ack 40 ------- 1 3.1 0.0 26 97
- 1.357867 0 2 tcp 1040 ------- 1 0.0 3.1 32 74
r 1.358453 2 3 tcp 1040 ------- 1 0.0 3.1 28 69
+ 1.358453 3 2 ack 40 ------- 1 3.1 0.0 28 100
- 1.358453 3 2 ack 40 ------- 1 3.1 0.0 28 100
r 1.359547 0 2 tcp 1040 ------- 1 0.0 3.1 30 72
+ 1.359547 2 3 tcp 1040 ------- 1 0.0 3.1 30 72
- 1.359547 2 3 tcp 1040 ------- 1 0.0 3.1 30 72
r 1.3628 3 2 ack 40 ------- 1 3.1 0.0 27 98
+ 1.3628 2 0 ack 40 ------- 1 3.1 0.0 27 98
- 1.3628 2 0 ack 40 ------- 1 3.1 0.0 27 98
- 1.366187 0 2 tcp 1040 ------- 1 0.0 3.1 33 76
r 1.366773 2 3 tcp 1040 ------- 1 0.0 3.1 29 71
+ 1.366773 3 2 ack 40 ------- 1 3.1 0.0 29 101
- 1.366773 3 2 ack 40 ------- 1 3.1 0.0 29 101
r 1.367573 2 0 ack 40 ------- 1 3.1 0.0 26 97
+ 1.367573 0 2 tcp 1040 ------- 1 0.0 3.1 46 102
r 1.367867 0 2 tcp 1040 ------- 1 0.0 3.1 31 73
+ 1.367867 2 3 tcp 1040 ------- 1 0.0 3.1 31 73
- 1.367867 2 3 tcp 1040 ------- 1 0.0 3.1 31 73
r 1.368667 3 2 ack 40 ------- 1 3.1 0.0 28 100
+ 1.368667 2 0 ack 40 ------- 1 3.1 0.0 28 100
- 1.368667 2 0 ack 40 ------- 1 3.1 0.0 28 100
r 1.37312 2 0 ack 40 ------- 1 3.1 0.0 27 98
+ 1.37312 0 2 tcp 1040 ------- 1 0.0 3.1 47 103
- 1.374507 0 2 tcp 1040 ------- 1 0.0 3.1 34 77
r 1.375093 2 3 tcp 1040 ------- 1 0.0 3.1 30 72
+ 1.375093 3 2 ack 40 ------- 1 3.1 0.0 30 104
- 1.375093 3 2 ack 40 ------- 1 3.1 0.0 30 104
r 1.376187 0 2 tcp 1040 ------- 1 0.0 3.1 32 74
+ 1.376187 2 3 tcp 1040 ------- 1 0.0 3.1 32 74
- 1.376187 2 3 tcp 1040 ------- 1 0.0 3.1 32 74
r 1.376987 3 2 ack 40 ------- 1 3.1 0.0 29 101
+ 1.376987 2 0 ack 40 ------- 1 3.1 0.0 29 101
- 1.376987 2 0 ack 40 ------- 1 3.1 0.0 29 101
r 1.378987 2 0 ack 40 ------- 1 3.1 0.0 28 100
+ 1.378987 0 2 tcp 1040 ------- 1 0.0 3.1 48 105
- 1.382827 0 2 tcp 1040 ------- 1 0.0 3.1 35 79
r 1.383413 2 3 tcp 1040 ------- 1 0.0 3.1 31 73
+ 1.383413 3 2 ack 40 ------- 1 3.1 0.0 31 106
- 1.383413 3 2 ack 40 ------- 1 3.1 0.0 31 106
r 1.384507 0 2 tcp 1040 ------- 1 0.0 3.1 33 76
+ 1.384507 2 3 tcp 1040 ------- 1 0.0 3.1 33 76
- 1.384507 2 3 tcp 1040 ------- 1 0.0 3.1 33 76
r 1.385307 3 2 ack 40 ------- 1 3.1 0.0 30 104
+ 1.385307 2 0 ack 40 ------- 1 3.1 0.0 30 104
- 1.385307 2 0 ack 40 ------- 1 3.1 0.0 30 104
r 1.387307 2 0 ack 40 ------- 1 3.1 0.0 29 101
+ 1.387307 0 2 tcp 1040 ------- 1 0.0 3.1 49 107
- 1.391147 0 2 tcp 1040 ------- 1 0.0 3.1 36 80
r 1.391733 2 3 tcp 1040 ------- 1 0.0 3.1 32 74
+ 1.391733 3 2 ack 40 ------- 1 3.1 0.0 32 108
- 1.391733 3 2 ack 40 ------- 1 3.1 0.0 32 108
r 1.392827 0 2 tcp 1040 ------- 1 0.0 3.1 34 77
+ 1.392827 2 3 tcp 1040 ------- 1 0.0 3.1 34 77
- 1.392827 2 3 tcp 1040 ------- 1 0.0 3.1 34 77
r 1.393627 3 2 ack 40 ------- 1 3.1 0.0 31 106
+ 1.393627 2 0 ack 40 ------- 1 3.1 0.0 31 106
- 1.393627 2 0 ack 40 ------- 1 3.1 0.0 31 106
r 1.395627 2 0 ack 40 ------- 1 3.1 0.0 30 104
+ 1.395627 0 2 tcp 1040 ------- 1 0.0 3.1 50 109
- 1.399467 0 2 tcp 1040 ------- 1 0.0 3.1 37 82
+ 1.4 1 2 cbr 1000 ------- 0 1.0 3.0 26 110
- 1.4 1 2 cbr 1000 ------- 0 1.0 3.0 26 110
+ 1.4 1 2 cbr 500 ------- 0 1.0 3.0 27 111
r 1.400053 2 3 tcp 1040 ------- 1 0.0 3.1 33 76
+ 1.400053 3 2 ack 40 ------- 1 3.1 0.0 33 112
- 1.400053 3 2 ack 40 ------- 1 3.1 0.0 33 112
r 1.401147 0 2 tcp 1040 ------- 1 0.0 3.1 35 79
+ 1.401147 2 3 tcp 1040 ------- 1 0.0 3.1 35 79
- 1.401147 2 3 tcp 1040 ------- 1 0.0 3.1 35 79
r 1.401947 3 2 ack 40 ------- 1 3.1 0.0 32 108
+ 1.401947 2 0 ack 40 ------- 1 3.1 0.0 32 108
- 1.401947 2 0 ack 40 ------- 1 3.1 0.0 32 108
r 1.403947 2 0 ack 40 ------- 1 3.1 0.0 31 106
+ 1.403947 0 2 tcp 1040 ------- 1 0.0 3.1 51 113
- 1.407787 0 2 tcp 1040 ------- 1 0.0 3.1 38 83
- 1.408 1 2 cbr 500 ------- 0 1.0 3.0 27 111
r 1.408373 2 3 tcp 1040 ------- 1 0.0 3.1 34 77
+ 1.408373 3 2 ack 40 ------- 1 3.1 0.0 34 114
- 1.408373 3 2 ack 40 ------- 1 3.1 0.0 34 114
r 1.409467 0 2 tcp 1040 ------- 1 0.0 3.1 36 80
+ 1.409467 2 3 tcp 1040 ------- 1 0.0 3.1 36 80
- 1.409467 2 3 tcp 1040 ------- 1 0.0 3.1 36 80
r 1.410267 3 2 ack 40 ------- 1 3.1 0.0 33 112
+ 1.410267 2 0 ack 40 ------- 1 3.1 0.0 33 112
- 1.410267 2 0 ack 40 ------- 1 3.1 0.0 33 112
r 1.412267 2 0 ack 40 ------- 1 3.1 0.0 32 108
+ 1.412267 0 2 tcp 1040 ------- 1 0.0 3.1 52 115
- 1.416107 0 2 tcp 1040 ------- 1 0.0 3.1 39 87
r 1.416693 2 3 tcp 1040 ------- 1 0.0 3.1 35 79
+ 1.416693 3 2 ack 40 ------- 1 3.1 0.0 35 116
- 1.416693 3 2 ack 40 ------- 1 3.1 0.0 35 116
r 1.417787 0 2 tcp 1040 ------- 1 0.0 3.1 37 82
+ 1.417787 2 3 tcp 1040 ------- 1 0.0 3.1 37 82
- 1.417787 2 3 tcp 1040 ------- 1 0.0 3.1 37 82
r 1.418 1 2 cbr 1000 ------- 0 1.0 3.0 26 110
+ 1.418 2 3 cbr 1000 ------- 0 1.0 3.0 26 110
r 1.418587 3 2 ack 40 ------- 1 3.1 0.0 34 114
+ 1.418587 2 0 ack 40 ------- 1 3.1 0.0 34 114
- 1.418587 2 0 ack 40 ------- 1 3.1 0.0 34 114
r 1.420587 2 0 ack 40 ------- 1 3.1 0.0 33 112
+ 1.420587 0 2 tcp 1040 ------- 1 0.0 3.1 53 117
r 1.422 1 2 cbr 500 ------- 0 1.0 3.0 27 111
+ 1.422 2 3 cbr 500 ------- 0 1.0 3.0 27 111
- 1.423333 2 3 cbr 1000 ------- 0 1.0 3.0 26 110
- 1.424427 0 2 tcp 1040 ------- 1 0.0 3.1 40 89
r 1.425013 2 3 tcp 1040 ------- 1 0.0 3.1 36 80
+ 1.425013 3 2 ack 40 ------- 1 3.1 0.0 36 118
- 1.425013 3 2 ack 40 ------- 1 3.1 0.0 36 118
r 1.426107 0 2 tcp 1040 ------- 1 0.0 3.1 38 83
+ 1.426107 2 3 tcp 1040 ------- 1 0.0 3.1 38 83
r 1.426907 3 2 ack 40 ------- 1 3.1 0.0 35 116
+ 1.426907 2 0 ack 40 ------- 1 3.1 0.0 35 116
- 1.426907 2 0 ack 40 ------- 1 3.1 0.0 35 116
- 1.428667 2 3 cbr 500 ------- 0 1.0 3.0 27 111
r 1.428907 2 0 ack 40 ------- 1 3.1 0.0 34 114
+ 1.428907 0 2 tcp 1040 ------- 1 0.0 3.1 54 119
- 1.431333 2 3 tcp 1040 ------- 1 0.0 3.1 38 83
- 1.432747 0 2 tcp 1040 ------- 1 0.0 3.1 41 91
r 1.433333 2 3 tcp 1040 ------- 1 0.0 3.1 37 82
+ 1.433333 3 2 ack 40 ------- 1 3.1 0.0 37 120
- 1.433333 3 2 ack 40 ------- 1 3.1 0.0 37 120
r 1.434427 0 2 tcp 1040 ------- 1 0.0 3.1 39 87
+ 1.434427 2 3 tcp 1040 ------- 1 0.0 3.1 39 87
r 1.435227 3 2 ack 40 ------- 1 3.1 0.0 36 118
+ 1.435227 2 0 ack 40 ------- 1 3.1 0.0 36 118
- 1.435227 2 0 ack 40 ------- 1 3.1 0.0 36 118
- 1.43688 2 3 tcp 1040 ------- 1 0.0 3.1 39 87
r 1.437227 2 0 ack 40 ------- 1 3.1 0.0 35 116
+ 1.437227 0 2 tcp 1040 ------- 1 0.0 3.1 55 121
r 1.438667 2 3 cbr 1000 ------- 0 1.0 3.0 26 110
- 1.441067 0 2 tcp 1040 ------- 1 0.0 3.1 42 93
r 1.441333 2 3 cbr 500 ------- 0 1.0 3.0 27 111
r 1.442747 0 2 tcp 1040 ------- 1 0.0 3.1 40 89
+ 1.442747 2 3 tcp 1040 ------- 1 0.0 3.1 40 89