n -t 0 -s 0 -S DLABEL -l "TCP Source" -L ""
n -t 0 -s 1 -S DLABEL -l "UDP Source" -L ""
n -t 0 -s 2 -S DLABEL -l "router" -L ""
n -t 0 -s 3 -S DLABEL -l "Sink/Null" -L ""
V -t * -v 1.0a5 -a 0
A -t * -n 1 -p 0 -o 0x7fffffff -c 30 -a 1
A -t * -h 1 -m 1073741823 -s 0
c -t * -i 1 -n blue
c -t * -i 2 -n red
n -t * -a 0 -s 0 -S UP -v circle -c black -i black
n -t * -a 1 -s 1 -S UP -v circle -c black -i black
n -t * -a 2 -s 2 -S UP -v circle -c black -i black
n -t * -a 3 -s 3 -S UP -v circle -c black -i black
l -t * -s 0 -d 2 -S UP -r 1000000 -D 0.01 -c black -o right-down
l -t * -s 1 -d 2 -S UP -r 1000000 -D 0.01 -c black -o right-up
l -t * -s 2 -d 3 -S UP -r 1500000 -D 0.01 -c black -o right
+ -t 0.1 -s 1 -d 2 -p cbr -e 1000 -c 0 -i 0 -a 0 -x {1.0 3.0 0 ------- null}
- -t 0.1 -s 1 -d 2 -p cbr -e 1000 -c 0 -i 0 -a 0 -x {1.0 3.0 0 ------- null}
h -t 0.1 -s 1 -d 2 -p cbr -e 1000 -c 0 -i 0 -a 0 -x {1.0 3.0 -1 ------- null}
+ -t 0.1 -s 1 -d 2 -p cbr -e 500 -c 0 -i 1 -a 0 -x {1.0 3.0 1 ------- null}
- -t 0.108 -s 1 -d 2 -p cbr -e 500 -c 0 -i 1 -a 0 -x {1.0 3.0 1 ------- null}
h -t 0.108 -s 1 -d 2 -p cbr -e 500 -c 0 -i 1 -a 0 -x {1.0 3.0 -1 ------- null}
r -t 0.118 -s 1 -d 2 -p cbr -e 1000 -c 0 -i 0 -a 0 -x {1.0 3.0 0 ------- null}
+ -t 0.118 -s 2 -d 3 -p cbr -e 1000 -c 0 -i 0 -a 0 -x {1.0 3.0 0 ------- null}
- -t 0.118 -s 2 -d 3 -p cbr -e 1000 -c 0 -i 0 -a 0 -x {1.0 3.0 0 ------- null}
h -t 0.118 -s 2 -d 3 -p cbr -e 1000 -c 0 -i 0 -a 0 -x {1.0 3.0 -1 ------- null}
r -t 0.122 -s 1 -d 2 -p cbr -e 500 -c 0 -i 1 -a 0 -x {1.0 3.0 1 ------- null}
+ -t 0.122 -s 2 -d 3 -p cbr -e 500 -c 0 -i 1 -a 0 -x {1.0 3.0 1 ------- null}
- -t 0.123333333333333 -s 2 -d 3 -p cbr -e 500 -c 0 -i 1 -a 0 -x {1.0 3.0 1 ------- null}
h -t 0.123333333333333 -s 2 -d 3 -p cbr -e 500 -c 0 -i 1 -a 0 -x {1.0 3.0 -1 ------- null}
r -t 0.133333333333333 -s 2 -d 3 -p cbr -e 1000 -c 0 -i 0 -a 0 -x {1.0 3.0 0 ------- null}
r -t 0.136 -s 2 -d 3 -p cbr -e 500 -c 0 -i 1 -a 0 -x {1.0 3.0 1 ------- null}
+ -t 0.2 -s 1 -d 2 -p cbr -e 1000 -c 0 -i 2 -a 0 -x {1.0 3.0 2 ------- null}
- -t 0.2 -s 1 -d 2 -p cbr -e 1000 -c 0 -i 2 -a 0 -x {1.0 3.0 2 ------- null}
h -t 0.2 -s 1 -d 2 -p cbr -e 1000 -c 0 -i 2 -a 0 -x {1.0 3.0 -1 ------- null}
+ -t 0.2 -s 1 -d 2 -p cbr -e 500 -c 0 -i 3 -a 0 -x {1.0 3.0 3 ------- null}
- -t 0.208 -s 1 -d 2 -p cbr -e 500 -c 0 -i 3 -a 0 -x {1.0 3.0 3 ------- null}
h -t 0.208 -s 1 -d 2 -p cbr -e 500 -c 0 -i 3 -a 0 -x {1.0 3.0 -1 ------- null}
r -t 0.218 -s 1 -d 2 -p cbr -e 1000 -c 0 -i 2 -a 0 -x {1.0 3.0 2 ------- null}
+ -t 0.218 -s 2 -d 3 -p cbr -e 1000 -c 0 -i 2 -a 0 -x {1.0 3.0 2 ------- null}
- -t 0.218 -s 2 -d 3 -p cbr -e 1000 -c 0 -i 2 -a 0 -x {1.0 3.0 2 ------- null}
h -t 0.218 -s 2 -d 3 -p cbr -e 1000 -c 0 -i 2 -a 0 -x {1.0 3.0 -1 ------- null}
r -t 0.222 -s 1 -d 2 -p cbr -e 500 -c 0 -i 3 -a 0 -x {1.0 3.0 3 ------- null}
+ -t 0.222 -s 2 -d 3 -p cbr -e 500 -c 0 -i 3 -a 0 -x {1.0 3.0 3 ------- null}
- -t 0.223333333333333 -s 2 -d 3 -p cbr -e 500 -c 0 -i 3 -a 0 -x {1.0 3.0 3 ------- null}
h -t 0.223333333333333 -s 2 -d 3 -p cbr -e 500 -c 0 -i 3 -a 0 -x {1.0 3.0 -1 ------- null}
r -t 0.233333333333333 -s 2 -d 3 -p cbr -e 1000 -c 0 -i 2 -a 0 -x {1.0 3.0 2 ------- null}
r -t 0.236 -s 2 -d 3 -p cbr -e 500 -c 0 -i 3 -a 0 -x {1.0 3.0 3 ------- null}
+ -t 0.3 -s 1 -d 2 -p cbr -e 1000 -c 0 -i 4 -a 0 -x {1.0 3.0 4 ------- null}
- -t 0.3 -s 1 -d 2 -p cbr -e 1000 -c 0 -i 4 -a 0 -x {1.0 3.0 4 ------- null}
h -t 0.3 -s 1 -d 2 -p cbr -e 1000 -c 0 -i 4 -a 0 -x {1.0 3.0 -1 ------- null}
+ -t 0.3 -s 1 -d 2 -p cbr -e 500 -c 0 -i 5 -a 0 -x {1.0 3.0 5 ------- null}
- -t 0.308 -s 1 -d 2 -p cbr -e 500 -c 0 -i 5 -a 0 -x {1.0 3.0 5 ------- null}
h -t 0.308 -s 1 -d 2 -p cbr -e 500 -c 0 -i 5 -a 0 -x {1.0 3.0 -1 ------- null}
r -t 0.318 -s 1 -d 2 -p cbr -e 1000 -c 0 -i 4 -a 0 -x {1.0 3.0 4 ------- null}
+ -t 0.318 -s 2 -d 3 -p cbr -e 1000 -c 0 -i 4 -a 0 -x {1.0 3.0 4 ------- null}
- -t 0.318 -s 2 -d 3 -p cbr -e 1000 -c 0 -i 4 -a 0 -x {1.0 3.0 4 ------- null}
h -t 0.318 -s 2 -d 3 -p cbr -e 1000 -c 0 -i 4 -a 0 -x {1.0 3.0 -1 ------- null}
r -t 0.322 -s 1 -d 2 -p cbr -e 500 -c 0 -i 5 -a 0 -x {1.0 3.0 5 ------- null}
+ -t 0.322 -s 2 -d 3 -p cbr -e 500 -c 0 -i 5 -a 0 -x {1.0 3.0 5 ------- null}
- -t 0.323333333333333 -s 2 -d 3 -p cbr -e 500 -c 0 -i 5 -a 0 -x {1.0 3.0 5 ------- null}
h -t 0.323333333333333 -s 2 -d 3 -p cbr -e 500 -c 0 -i 5 -a 0 -x {1.0 3.0 -1 ------- null}
r -t 0.333333333333333 -s 2 -d 3 -p cbr -e 1000 -c 0 -i 4 -a 0 -x {1.0 3.0 4 ------- null}
r -t 0.336 -s 2 -d 3 -p cbr -e 500 -c 0 -i 5 -a 0 -x {1.0 3.0 5 ------- null}
+ -t 0.4 -s 1 -d 2 -p cbr -e 1000 -c 0 -i 6 -a 0 -x {1.0 3.0 6 ------- null}
- -t 0.4 -s 1 -d 2 -p cbr -e 1000 -c 0 -i 6 -a 0 -x {1.0 3.0 6 ------- null}
h -t 0.4 -s 1 -d 2 -p cbr -e 1000 -c 0 -i 6 -a 0 -x {1.0 3.0 -1 ------- null}
+ -t 0.4 -s 1 -d 2 -p cbr -e 500 -c 0 -i 7 -a 0 -x {1.0 3.0 7 ------- null}
- -t 0.408 -s 1 -d 2 -p cbr -e 500 -c 0 -i 7 -a 0 -x {1.0 3.0 7 ------- null}
h -t 0.408 -s 1 -d 2 -p cbr -e 500 -c 0 -i 7 -a 0 -x {1.0 3.0 -1 ------- null}
r -t 0.418 -s 1 -d 2 -p cbr -e 1000 -c 0 -i 6 -a 0 -x {1.0 3.0 6 ------- null}
+ -t 0.418 -s 2 -d 3 -p cbr -e 1000 -c 0 -i 6 -a 0 -x {1.0 3.0 6 ------- null}
- -t 0.418 -s 2 -d 3 -p cbr -e 1000 -c 0 -i 6 -a 0 -x {1.0 3.0 6 ------- null}
h -t 0.418 -s 2 -d 3 -p cbr -e 1000 -c 0 -i 6 -a 0 -x {1.0 3.0 -1 ------- null}
r -t 0.422 -s 1 -d 2 -p cbr -e 500 -c 0 -i 7 -a 0 -x {1.0 3.0 7 ------- null}
+ -t 0.422 -s 2 -d 3 -p cbr -e 500 -c 0 -i 7 -a 0 -x {1.0 3.0 7 ------- null}
- -t 0.423333333333333 -s 2 -d 3 -p cbr -e 500 -c 0 -i 7 -a 0 -x {1.0 3.0 7 ------- null}
h -t 0.423333333333333 -s 2 -d 3 -p cbr -e 500 -c 0 -i 7 -a 0 -x {1.0 3.0 -1 ------- null}
r -t 0.433333333333333 -s 2 -d 3 -p cbr -e 1000 -c 0 -i 6 -a 0 -x {1.0 3.0 6 ------- null}
r -t 0.436 -s 2 -d 3 -p cbr -e 500 -c 0 -i 7 -a 0 -x {1.0 3.0 7 ------- null}
+ -t 0.5 -s 1 -d 2 -p cbr -e 1000 -c 0 -i 8 -a 0 -x {1.0 3.0 8 ------- null}
- -t 0.5 -s 1 -d 2 -p cbr -e 1000 -c 0 -i 8 -a 0 -x {1.0 3.0 8 ------- null}
h -t 0.5 -s 1 -d 2 -p cbr -e 1000 -c 0 -i 8 -a 0 -x {1.0 3.0 -1 ------- null}
+ -t 0.5 -s 1 -d 2 -p cbr -e 500 -c 0 -i 9 -a 0 -x {1.0 3.0 9 ------- null}
- -t 0.508 -s 1 -d 2 -p cbr -e 500 -c 0 -i 9 -a 0 -x {1.0 3.0 9 ------- null}
h -t 0.508 -s 1 -d 2 -p cbr -e 500 -c 0 -i 9 -a 0 -x {1.0 3.0 -1 ------- null}
r -t 0.518 -s 1 -d 2 -p cbr -e 1000 -c 0 -i 8 -a 0 -x {1.0 3.0 8 ------- null}
+ -t 0.518 -s 2 -d 3 -p cbr -e 1000 -c 0 -i 8 -a 0 -x {1.0 3.0 8 ------- null}
- -t 0.518 -s 2 -d 3 -p cbr -e 1000 -c 0 -i 8 -a 0 -x {1.0 3.0 8 ------- null}
h -t 0.518 -s 2 -d 3 -p cbr -e 1000 -c 0 -i 8 -a 0 -x {1.0 3.0 -1 ------- null}
r -t 0.522 -s 1 -d 2 -p cbr -e 500 -c 0 -i 9 -a 0 -x {1.0 3.0 9 ------- null}
+ -t 0.522 -s 2 -d 3 -p cbr -e 500 -c 0 -i 9 -a 0 -x {1.0 3.0 9 ------- null}
- -t 0.523333333333333 -s 2 -d 3 -p cbr -e 500 -c 0 -i 9 -a 0 -x {1.0 3.0 9 ------- null}
h -t 0.523333333333333 -s 2 -d 3 -p cbr -e 500 -c 0 -i 9 -a 0 -x {1.0 3.0 -1 ------- null}
r -t 0.533333333333333 -s 2 -d 3 -p cbr -e 1000 -c 0 -i 8 -a 0 -x {1.0 3.0 8 ------- null}
r -t 0.536 -s 2 -d 3 -p cbr -e 500 -c 0 -i 9 -a 0 -x {1.0 3.0 9 ------- null}
+ -t 0.6 -s 1 -d 2 -p cbr -e 1000 -c 0 -i 10 -a 0 -x {1.0 3.0 10 ------- null}
- -t 0.6 -s 1 -d 2 -p cbr -e 1000 -c 0 -i 10 -a 0 -x {1.0 3.0 10 ------- null}
h -t 0.6 -s 1 -d 2 -p cbr -e 1000 -c 0 -i 10 -a 0 -x {1.0 3.0 -1 ------- null}
+ -t 0.6 -s 1 -d 2 -p cbr -e 500 -c 0 -i 11 -a 0 -x {1.0 3.0 11 ------- null}
- -t 0.608 -s 1 -d 2 -p cbr -e 500 -c 0 -i 11 -a 0 -x {1.0 3.0 11 ------- null}
h -t 0.608 -s 1 -d 2 -p cbr -e 500 -c 0 -i 11 -a 0 -x {1.0 3.0 -1 ------- null}
r -t 0.618 -s 1 -d 2 -p cbr -e 1000 -c 0 -i 10 -a 0 -x {1.0 3.0 10 ------- null}
+ -t 0.618 -s 2 -d 3 -p cbr -e 1000 -c 0 -i 10 -a 0 -x {1.0 3.0 10 ------- null}
- -t 0.618 -s 2 -d 3 -p cbr -e 1000 -c 0 -i 10 -a 0 -x {1.0 3.0 10 ------- null}
h -t 0.618 -s 2 -d 3 -p cbr -e 1000 -c 0 -i 10 -a 0 -x {1.0 3.0 -1 ------- null}
r -t 0.622 -s 1 -d 2 -p cbr -e 500 -c 0 -i 11 -a 0 -x {1.0 3.0 11 ------- null}
+ -t 0.622 -s 2 -d 3 -p cbr -e 500 -c 0 -i 11 -a 0 -x {1.0 3.0 11 ------- null}
- -t 0.623333333333333 -s 2 -d 3 -p cbr -e 500 -c 0 -i 11 -a 0 -x {1.0 3.0 11 ------- null}
h -t 0.623333333333333 -s 2 -d 3 -p cbr -e 500 -c 0 -i 11 -a 0 -x {1.0 3.0 -1 ------- null}
r -t 0.633333333333333 -s 2 -d 3 -p cbr -e 1000 -c 0 -i 10 -a 0 -x {1.0 3.0 10 ------- null}
r -t 0.636 -s 2 -d 3 -p cbr -e 500 -c 0 -i 11 -a 0 -x {1.0 3.0 11 ------- null}
+ -t 0.7 -s 1 -d 2 -p cbr -e 1000 -c 0 -i 12 -a 0 -x {1.0 3.0 12 ------- null}
- -t 0.7 -s 1 -d 2 -p cbr -e 1000 -c 0 -i 12 -a 0 -x {1.0 3.0 12 ------- null}
h -t 0.7 -s 1 -d 2 -p cbr -e 1000 -c 0 -i 12 -a 0 -x {1.0 3.0 -1 ------- null}
+ -t 0.7 -s 1 -d 2 -p cbr -e 500 -c 0 -i 13 -a 0 -x {1.0 3.0 13 ------- null}
- -t 0.708 -s 1 -d 2 -p cbr -e 500 -c 0 -i 13 -a 0 -x {1.0 3.0 13 ------- null}
h -t 0.708 -s 1 -d 2 -p cbr -e 500 -c 0 -i 13 -a 0 -x {1.0 3.0 -1 ------- null}
r -t 0.718 -s 1 -d 2 -p cbr -e 1000 -c 0 -i 12 -a 0 -x {1.0 3.0 12 ------- null}
+ -t 0.718 -s 2 -d 3 -p cbr -e 1000 -c 0 -i 12 -a 0 -x {1.0 3.0 12 ------- null}
- -t 0.718 -s 2 -d 3 -p cbr -e 1000 -c 0 -i 12 -a 0 -x {1.0 3.0 12 ------- null}
h -t 0.718 -s 2 -d 3 -p cbr -e 1000 -c 0 -i 12 -a 0 -x {1.0 3.0 -1 ------- null}
r -t 0.722 -s 1 -d 2 -p cbr -e 500 -c 0 -i 13 -a 0 -x {1.0 3.0 13 ------- null}
+ -t 0.722 -s 2 -d 3 -p cbr -e 500 -c 0 -i 13 -a 0 -x {1.0 3.0 13 ------- null}
- -t 0.723333333333333 -s 2 -d 3 -p cbr -e 500 -c 0 -i 13 -a 0 -x {1.0 3.0 13 ------- null}
h -t 0.723333333333333 -s 2 -d 3 -p cbr -e 500 -c 0 -i 13 -a 0 -x {1.0 3.0 -1 ------- null}
r -t 0.733333333333333 -s 2 -d 3 -p cbr -e 1000 -c 0 -i 12 -a 0 -x {1.0 3.0 12 ------- null}
r -t 0.736 -s 2 -d 3 -p cbr -e 500 -c 0 -i 13 -a 0 -x {1.0 3.0 13 ------- null}
+ -t 0.8 -s 1 -d 2 -p cbr -e 1000 -c 0 -i 14 -a 0 -x {1.0 3.0 14 ------- null}
- -t 0.8 -s 1 -d 2 -p cbr -e 1000 -c 0 -i 14 -a 0 -x {1.0 3.0 14 ------- null}
h -t 0.8 -s 1 -d 2 -p cbr -e 1000 -c 0 -i 14 -a 0 -x {1.0 3.0 -1 ------- null}
+ -t 0.8 -s 1 -d 2 -p cbr -e 500 -c 0 -i 15 -a 0 -x {1.0 3.0 15 ------- null}
- -t 0.808 -s 1 -d 2 -p cbr -e 500 -c 0 -i 15 -a 0 -x {1.0 3.0 15 ------- null}
h -t 0.808 -s 1 -d 2 -p cbr -e 500 -c 0 -i 15 -a 0 -x {1.0 3.0 -1 ------- null}
r -t 0.818 -s 1 -d 2 -p cbr -e 1000 -c 0 -i 14 -a 0 -x {1.0 3.0 14 ------- null}
+ -t 0.818 -s 2 -d 3 -p cbr -e 1000 -c 0 -i 14 -a 0 -x {1.0 3.0 14 ------- null}
- -t 0.818 -s 2 -d 3 -p cbr -e 1000 -c 0 -i 14 -a 0 -x {1.0 3.0 14 ------- null}
h -t 0.818 -s 2 -d 3 -p cbr -e 1000 -c 0 -i 14 -a 0 -x {1.0 3.0 -1 ------- null}
r -t 0.822 -s 1 -d 2 -p cbr -e 500 -c 0 -i 15 -a 0 -x {1.0 3.0 15 ------- null}
+ -t 0.822 -s 2 -d 3 -p cbr -e 500 -c 0 -i 15 -a 0 -x {1.0 3.0 15 ------- null}
- -t 0.823333333333333 -s 2 -d 3 -p cbr -e 500 -c 0 -i 15 -a 0 -x {1.0 3.0 15 ------- null}
h -t 0.823333333333333 -s 2 -d 3 -p cbr -e 500 -c 0 -i 15 -a 0 -x {1.0 3.0 -1 ------- null}
r -t 0.833333333333333 -s 2 -d 3 -p cbr -e 1000 -c 0 -i 14 -a 0 -x {1.0 3.0 14 ------- null}
r -t 0.836 -s 2 -d 3 -p cbr -e 500 -c 0 -i 15 -a 0 -x {1.0 3.0 15 ------- null}
+ -t 0.9 -s 1 -d 2 -p cbr -e 1000 -c 0 -i 16 -a 0 -x {1.0 3.0 16 ------- null}
- -t 0.9 -s 1 -d 2 -p cbr -e 1000 -c 0 -i 16 -a 0 -x {1.0 3.0 16 ------- null}
h -t 0.9 -s 1 -d 2 -p cbr -e 1000 -c 0 -i 16 -a 0 -x {1.0 3.0 -1 ------- null}
+ -t 0.9 -s 1 -d 2 -p cbr -e 500 -c 0 -i 17 -a 0 -x {1.0 3.0 17 ------- null}
- -t 0.908 -s 1 -d 2 -p cbr -e 500 -c 0 -i 17 -a 0 -x {1.0 3.0 17 ------- null}
h -t 0.908 -s 1 -d 2 -p cbr -e 500 -c 0 -i 17 -a 0 -x {1.0 3.0 -1 ------- null}
r -t 0.918 -s 1 -d 2 -p cbr -e 1000 -c 0 -i 16 -a 0 -x {1.0 3.0 16 ------- null}
+ -t 0.918 -s 2 -d 3 -p cbr -e 1000 -c 0 -i 16 -a 0 -x {1.0 3.0 16 ------- null}
- -t 0.918 -s 2 -d 3 -p cbr -e 1000 -c 0 -i 16 -a 0 -x {1.0 3.0 16 ------- null}
h -t 0.918 -s 2 -d 3 -p cbr -e 1000 -c 0 -i 16 -a 0 -x {1.0 3.0 -1 ------- null}
r -t 0.922 -s 1 -d 2 -p cbr -e 500 -c 0 -i 17 -a 0 -x {1.0 3.0 17 ------- null}
+ -t 0.922 -s 2 -d 3 -p cbr -e 500 -c 0 -i 17 -a 0 -x {1.0 3.0 17 ------- null}
- -t 0.923333333333333 -s 2 -d 3 -p cbr -e 500 -c 0 -i 17 -a 0 -x {1.0 3.0 17 ------- null}
h -t 0.923333333333333 -s 2 -d 3 -p cbr -e 500 -c 0 -i 17 -a 0 -x {1.0 3.0 -1 ------- null}
r -t 0.933333333333333 -s 2 -d 3 -p cbr -e 1000 -c 0 -i 16 -a 0 -x {1.0 3.0 16 ------- null}
r -t 0.936 -s 2 -d 3 -p cbr -e 500 -c 0 -i 17 -a 0 -x {1.0 3.0 17 ------- null}
+ -t 1 -s 1 -d 2 -p cbr -e 1000 -c 0 -i 18 -a 0 -x {1.0 3.0 18 ------- null}
- -t 1 -s 1 -d 2 -p cbr -e 1000 -c 0 -i 18 -a 0 -x {1.0 3.0 18 ------- null}
h -t 1 -s 1 -d 2 -p cbr -e 1000 -c 0 -i 18 -a 0 -x {1.0 3.0 -1 ------- null}
+ -t 1 -s 1 -d 2 -p cbr -e 500 -c 0 -i 19 -a 0 -x {1.0 3.0 19 ------- null}
+ -t 1 -s 0 -d 2 -p tcp -e 40 -c 1 -i 20 -a 1 -x {0.0 3.1 0 ------- null}
- -t 1 -s 0 -d 2 -p tcp -e 40 -c 1 -i 20 -a 1 -x {0.0 3.1 0 ------- null}
h -t 1 -s 0 -d 2 -p tcp -e 40 -c 1 -i 20 -a 1 -x {0.0 3.1 -1 ------- null}
- -t 1.008 -s 1 -d 2 -p cbr -e 500 -c 0 -i 19 -a 0 -x {1.0 3.0 19 ------- null}
h -t 1.008 -s 1 -d 2 -p cbr -e 500 -c 0 -i 19 -a 0 -x {1.0 3.0 -1 ------- null}
r -t 1.01032 -s 0 -d 2 -p tcp -e 40 -c 1 -i 20 -a 1 -x {0.0 3.1 0 ------- null}
+ -t 1.01032 -s 2 -d 3 -p tcp -e 40 -c 1 -i 20 -a 1 -x {0.0 3.1 0 ------- null}
- -t 1.01032 -s 2 -d 3 -p tcp -e 40 -c 1 -i 20 -a 1 -x {0.0 3.1 0 ------- null}
h -t 1.01032 -s 2 -d 3 -p tcp -e 40 -c 1 -i 20 -a 1 -x {0.0 3.1 -1 ------- null}
r -t 1.018 -s 1 -d 2 -p cbr -e 1000 -c 0 -i 18 -a 0 -x {1.0 3.0 18 ------- null}
+ -t 1.018 -s 2 -d 3 -p cbr -e 1000 -c 0 -i 18 -a 0 -x {1.0 3.0 18 ------- null}
- -t 1.018 -s 2 -d 3 -p cbr -e 1000 -c 0 -i 18 -a 0 -x {1.0 3.0 18 ------- null}
h -t 1.018 -s 2 -d 3 -p cbr -e 1000 -c 0 -i 18 -a 0 -x {1.0 3.0 -1 ------- null}
r -t 1.02053333333333 -s 2 -d 3 -p tcp -e 40 -c 1 -i 20 -a 1 -x {0.0 3.1 0 ------- null}
+ -t 1.02053333333333 -s 3 -d 2 -p ack -e 40 -c 1 -i 21 -a 1 -x {3.1 0.0 0 ------- null}
- -t 1.02053333333333 -s 3 -d 2 -p ack -e 40 -c 1 -i 21 -a 1 -x {3.1 0.0 0 ------- null}
h -t 1.02053333333333 -s 3 -d 2 -p ack -e 40 -c 1 -i 21 -a 1 -x {3.1 0.0 -1 ------- null}
r -t 1.022 -s 1 -d 2 -p cbr -e 500 -c 0 -i 19 -a 0 -x {1.0 3.0 19 ------- null}
+ -t 1.022 -s 2 -d 3 -p cbr -e 500 -c 0 -i 19 -a 0 -x {1.0 3.0 19 ------- null}
- -t 1.02333333333333 -s 2 -d 3 -p cbr -e 500 -c 0 -i 19 -a 0 -x {1.0 3.0 19 ------- null}
h -t 1.02333333333333 -s 2 -d 3 -p cbr -e 500 -c 0 -i 19 -a 0 -x {1.0 3.0 -1 ------- null}
r -t 1.03074666666667 -s 3 -d 2 -p ack -e 40 -c 1 -i 21 -a 1 -x {3.1 0.0 0 ------- null}
+ -t 1.03074666666667 -s 2 -d 0 -p ack -e 40 -c 1 -i 21 -a 1 -x {3.1 0.0 0 ------- null}
- -t 1.03074666666667 -s 2 -d 0 -p ack -e 40 -c 1 -i 21 -a 1 -x {3.1 0.0 0 ------- null}
h -t 1.03074666666667 -s 2 -d 0 -p ack -e 40 -c 1 -i 21 -a 1 -x {3.1 0.0 -1 ------- null}
r -t 1.03333333333333 -s 2 -d 3 -p cbr -e 1000 -c 0 -i 18 -a 0 -x {1.0 3.0 18 ------- null}
r -t 1.036 -s 2 -d 3 -p cbr -e 500 -c 0 -i 19 -a 0 -x {1.0 3.0 19 ------- null}
r -t 1.04106666666667 -s 2 -d 0 -p ack -e 40 -c 1 -i 21 -a 1 -x {3.1 0.0 0 ------- null}
+ -t 1.04106666666667 -s 0 -d 2 -p tcp -e 1040 -c 1 -i 22 -a 1 -x {0.0 3.1 1 ------- null}
- -t 1.04106666666667 -s 0 -d 2 -p tcp -e 1040 -c 1 -i 22 -a 1 -x {0.0 3.1 1 ------- null}
h -t 1.04106666666667 -s 0 -d 2 -p tcp -e 1040 -c 1 -i 22 -a 1 -x {0.0 3.1 -1 ------- null}
+ -t 1.04106666666667 -s 0 -d 2 -p tcp -e 1040 -c 1 -i 23 -a 1 -x {0.0 3.1 2 ------- null}
- -t 1.04938666666667 -s 0 -d 2 -p tcp -e 1040 -c 1 -i 23 -a 1 -x {0.0 3.1 2 ------- null}
h -t 1.04938666666667 -s 0 -d 2 -p tcp -e 1040 -c 1 -i 23 -a 1 -x {0.0 3.1 -1 ------- null}
r -t 1.05938666666667 -s 0 -d 2 -p tcp -e 1040 -c 1 -i 22 -a 1 -x {0.0 3.1 1 ------- null}
+ -t 1.05938666666667 -s 2 -d 3 -p tcp -e 1040 -c 1 -i 22 -a 1 -x {0.0 3.1 1 ------- null}
- -t 1.05938666666667 -s 2 -d 3 -p tcp -e 1040 -c 1 -i 22 -a 1 -x {0.0 3.1 1 ------- null}
h -t 1.05938666666667 -s 2 -d 3 -p tcp -e 1040 -c 1 -i 22 -a 1 -x {0.0 3.1 -1 ------- null}
r -t 1.06770666666667 -s 0 -d 2 -p tcp -e 1040 -c 1 -i 23 -a 1 -x {0.0 3.1 2 ------- null}
+ -t 1.06770666666667 -s 2 -d 3 -p tcp -e 1040 -c 1 -i 23 -a 1 -x {0.0 3.1 2 ------- null}
- -t 1.06770666666667 -s 2 -d 3 -p tcp -e 1040 -c 1 -i 23 -a 1 -x {0.0 3.1 2 ------- null}
h -t 1.06770666666667 -s 2 -d 3 -p tcp -e 1040 -c 1 -i 23 -a 1 -x {0.0 3.1 -1 ------- null}
r -t 1.07493333333333 -s 2 -d 3 -p tcp -e 1040 -c 1 -i 22 -a 1 -x {0.0 3.1 1 ------- null}
+ -t 1.07493333333333 -s 3 -d 2 -p ack -e 40 -c 1 -i 24 -a 1 -x {3.1 0.0 1 ------- null}
- -t 1.07493333333333 -s 3 -d 2 -p ack -e 40 -c 1 -i 24 -a 1 -x {3.1 0.0 1 ------- null}
h -t 1.07493333333333 -s 3 -d 2 -p ack -e 40 -c 1 -i 24 -a 1 -x {3.1 0.0 -1 ------- null}
r -t 1.08325333333333 -s 2 -d 3 -p tcp -e 1040 -c 1 -i 23 -a 1 -x {0.0 3.1 2 ------- null}
+ -t 1.08325333333333 -s 3 -d 2 -p ack -e 40 -c 1 -i 25 -a 1 -x {3.1 0.0 2 ------- null}
- -t 1.08325333333333 -s 3 -d 2 -p ack -e 40 -c 1 -i 25 -a 1 -x {3.1 0.0 2 ------- null}
h -t 1.08325333333333 -s 3 -d 2 -p ack -e 40 -c 1 -i 25 -a 1 -x {3.1 0.0 -1 ------- null}
r -t 1.08514666666667 -s 3 -d 2 -p ack -e 40 -c 1 -i 24 -a 1 -x {3.1 0.0 1 ------- null}
+ -t 1.08514666666667 -s 2 -d 0 -p ack -e 40 -c 1 -i 24 -a 1 -x {3.1 0.0 1 ------- null}
- -t 1.08514666666667 -s 2 -d 0 -p ack -e 40 -c 1 -i 24 -a 1 -x {3.1 0.0 1 ------- null}
h -t 1.08514666666667 -s 2 -d 0 -p ack -e 40 -c 1 -i 24 -a 1 -x {3.1 0.0 -1 ------- null}
r -t 1.09346666666667 -s 3 -d 2 -p ack -e 40 -c 1 -i 25 -a 1 -x {3.1 0.0 2 ------- null}
+ -t 1.09346666666667 -s 2 -d 0 -p ack -e 40 -c 1 -i 25 -a 1 -x {3.1 0.0 2 ------- null}
- -t 1.09346666666667 -s 2 -d 0 -p ack -e 40 -c 1 -i 25 -a 1 -x {3.1 0.0 2 ------- null}
h -t 1.09346666666667 -s 2 -d 0 -p ack -e 40 -c 1 -i 25 -a 1 -x {3.1 0.0 -1 ------- null}
r -t 1.09546666666667 -s 2 -d 0 -p ack -e 40 -c 1 -i 24 -a 1 -x {3.1 0.0 1 ------- null}
+ -t 1.09546666666667 -s 0 -d 2 -p tcp -e 1040 -c 1 -i 26 -a 1 -x {0.0 3.1 3 ------- null}
- -t 1.09546666666667 -s 0 -d 2 -p tcp -e 1040 -c 1 -i 26 -a 1 -x {0.0 3.1 3 ------- null}
h -t 1.09546666666667 -s 0 -d 2 -p tcp -e 1040 -c 1 -i 26 -a 1 -x {0.0 3.1 -1 ------- null}
+ -t 1.09546666666667 -s 0 -d 2 -p tcp -e 1040 -c 1 -i 27 -a 1 -x {0.0 3.1 4 ------- null}
+ -t 1.1 -s 1 -d 2 -p cbr -e 1000 -c 0 -i 28 -a 0 -x {1.0 3.0 20 ------- null}
- -t 1.1 -s 1 -d 2 -p cbr -e 1000 -c 0 -i 28 -a 0 -x {1.0 3.0 20 ------- null}
h -t 1.1 -s 1 -d 2 -p cbr -e 1000 -c 0 -i 28 -a 0 -x {1.0 3.0 -1 ------- null}
+ -t 1.1 -s 1 -d 2 -p cbr -e 500 -c 0 -i 29 -a 0 -x {1.0 3.0 21 ------- null}
r -t 1.10378666666667 -s 2 -d 0 -p ack -e 40 -c 1 -i 25 -a 1 -x {3.1 0.0 2 ------- null}
+ -t 1.10378666666667 -s 0 -d 2 -p tcp -e 1040 -c 1 -i 30 -a 1 -x {0.0 3.1 5 ------- null}
+ -t 1.10378666666667 -s 0 -d 2 -p tcp -e 1040 -c 1 -i 31 -a 1 -x {0.0 3.1 6 ------- null}
- -t 1.10378666666667 -s 0 -d 2 -p tcp -e 1040 -c 1 -i 27 -a 1 -x {0.0 3.1 4 ------- null}
h -t 1.10378666666667 -s 0 -d 2 -p tcp -e 1040 -c 1 -i 27 -a 1 -x {0.0 3.1 -1 ------- null}
- -t 1.108 -s 1 -d 2 -p cbr -e 500 -c 0 -i 29 -a 0 -x {1.0 3.0 21 ------- null}
h -t 1.108 -s 1 -d 2 -p cbr -e 500 -c 0 -i 29 -a 0 -x {1.0 3.0 -1 ------- null}
- -t 1.11210666666667 -s 0 -d 2 -p tcp -e 1040 -c 1 -i 30 -a 1 -x {0.0 3.1 5 ------- null}
h -t 1.11210666666667 -s 0 -d 2 -p tcp -e 1040 -c 1 -i 30 -a 1 -x {0.0 3.1 -1 ------- null}
r -t 1.11378666666667 -s 0 -d 2 -p tcp -e 1040 -c 1 -i 26 -a 1 -x {0.0 3.1 3 ------- null}
+ -t 1.11378666666667 -s 2 -d 3 -p tcp -e 1040 -c 1 -i 26 -a 1 -x {0.0 3.1 3 ------- null}
- -t 1.11378666666667 -s 2 -d 3 -p tcp -e 1040 -c 1 -i 26 -a 1 -x {0.0 3.1 3 ------- null}
h -t 1.11378666666667 -s 2 -d 3 -p tcp -e 1040 -c 1 -i 26 -a 1 -x {0.0 3.1 -1 ------- null}
r -t 1.118 -s 1 -d 2 -p cbr -e 1000 -c 0 -i 28 -a 0 -x {1.0 3.0 20 ------- null}
+ -t 1.118 -s 2 -d 3 -p cbr -e 1000 -c 0 -i 28 -a 0 -x {1.0 3.0 20 ------- null}
- -t 1.11933333333333 -s 2 -d 3 -p cbr -e 1000 -c 0 -i 28 -a 0 -x {1.0 3.0 20 ------- null}
h -t 1.11933333333333 -s 2 -d 3 -p cbr -e 1000 -c 0 -i 28 -a 0 -x {1.0 3.0 -1 ------- null}
- -t 1.12042666666667 -s 0 -d 2 -p tcp -e 1040 -c 1 -i 31 -a 1 -x {0.0 3.1 6 ------- null}
h -t 1.12042666666667 -s 0 -d 2 -p tcp -e 1040 -c 1 -i 31 -a 1 -x {0.0 3.1 -1 ------- null}
r -t 1.122 -s 1 -d 2 -p cbr -e 500 -c 0 -i 29 -a 0 -x {1.0 3.0 21 ------- null}
+ -t 1.122 -s 2 -d 3 -p cbr -e 500 -c 0 -i 29 -a 0 -x {1.0 3.0 21 ------- null}
r -t 1.12210666666667 -s 0 -d 2 -p tcp -e 1040 -c 1 -i 27 -a 1 -x {0.0 3.1 4 ------- null}
+ -t 1.12210666666667 -s 2 -d 3 -p tcp -e 1040 -c 1 -i 27 -a 1 -x {0.0 3.1 4 ------- null}
- -t 1.12466666666667 -s 2 -d 3 -p cbr -e 500 -c 0 -i 29 -a 0 -x {1.0 3.0 21 ------- null}
h -t 1.12466666666667 -s 2 -d 3 -p cbr -e 500 -c 0 -i 29 -a 0 -x {1.0 3.0 -1 ------- null}
- -t 1.12733333333333 -s 2 -d 3 -p tcp -e 1040 -c 1 -i 27 -a 1 -x {0.0 3.1 4 ------- null}
h -t 1.12733333333333 -s 2 -d 3 -p tcp -e 1040 -c 1 -i 27 -a 1 -x {0.0 3.1 -1 ------- null}
r -t 1.12933333333333 -s 2 -d 3 -p tcp -e 1040 -c 1 -i 26 -a 1 -x {0.0 3.1 3 ------- null}
+ -t 1.12933333333333 -s 3 -d 2 -p ack -e 40 -c 1 -i 32 -a 1 -x {3.1 0.0 3 ------- null}
- -t 1.12933333333333 -s 3 -d 2 -p ack -e 40 -c 1 -i 32 -a 1 -x {3.1 0.0 3 ------- null}
h -t 1.12933333333333 -s 3 -d 2 -p ack -e 40 -c 1 -i 32 -a 1 -x {3.1 0.0 -1 ------- null}
r -t 1.13042666666667 -s 0 -d 2 -p tcp -e 1040 -c 1 -i 30 -a 1 -x {0.0 3.1 5 ------- null}
+ -t 1.13042666666667 -s 2 -d 3 -p tcp -e 1040 -c 1 -i 30 -a 1 -x {0.0 3.1 5 ------- null}
- -t 1.13288 -s 2 -d 3 -p tcp -e 1040 -c 1 -i 30 -a 1 -x {0.0 3.1 5 ------- null}
h -t 1.13288 -s 2 -d 3 -p tcp -e 1040 -c 1 -i 30 -a 1 -x {0.0 3.1 -1 ------- null}
r -t 1.13466666666667 -s 2 -d 3 -p cbr -e 1000 -c 0 -i 28 -a 0 -x {1.0 3.0 20 ------- null}
r -t 1.13733333333333 -s 2 -d 3 -p cbr -e 500 -c 0 -i 29 -a 0 -x {1.0 3.0 21 ------- null}
r -t 1.13874666666667 -s 0 -d 2 -p tcp -e 1040 -c 1 -i 31 -a 1 -x {0.0 3.1 6 ------- null}
+ -t 1.13874666666667 -s 2 -d 3 -p tcp -e 1040 -c 1 -i 31 -a 1 -x {0.0 3.1 6 ------- null}
- -t 1.13874666666667 -s 2 -d 3 -p tcp -e 1040 -c 1 -i 31 -a 1 -x {0.0 3.1 6 ------- null}
h -t 1.13874666666667 -s 2 -d 3 -p tcp -e 1040 -c 1 -i 31 -a 1 -x {0.0 3.1 -1 ------- null}
r -t 1.13954666666667 -s 3 -d 2 -p ack -e 40 -c 1 -i 32 -a 1 -x {3.1 0.0 3 ------- null}
+ -t 1.13954666666667 -s 2 -d 0 -p ack -e 40 -c 1 -i 32 -a 1 -x {3.1 0.0 3 ------- null}
- -t 1.13954666666667 -s 2 -d 0 -p ack -e 40 -c 1 -i 32 -a 1 -x {3.1 0.0 3 ------- null}
h -t 1.13954666666667 -s 2 -d 0 -p ack -e 40 -c 1 -i 32 -a 1 -x {3.1 0.0 -1 ------- null}
r -t 1.14288 -s 2 -d 3 -p tcp -e 1040 -c 1 -i 27 -a 1 -x {0.0 3.1 4 ------- null}
+ -t 1.14288 -s 3 -d 2 -p ack -e 40 -c 1 -i 33 -a 1 -x {3.1 0.0 4 ------- null}
- -t 1.14288 -s 3 -d 2 -p ack -e 40 -c 1 -i 33 -a 1 -x {3.1 0.0 4 ------- null}
h -t 1.14288 -s 3 -d 2 -p ack -e 40 -c 1 -i 33 -a 1 -x {3.1 0.0 -1 ------- null}
r -t 1.14842666666667 -s 2 -d 3 -p tcp -e 1040 -c 1 -i 30 -a 1 -x {0.0 3.1 5 ------- null}
+ -t 1.14842666666667 -s 3 -d 2 -p ack -e 40 -c 1 -i 34 -a 1 -x {3.1 0.0 5 ------- null}
- -t 1.14842666666667 -s 3 -d 2 -p ack -e 40 -c 1 -i 34 -a 1 -x {3.1 0.0 5 ------- null}
h -t 1.14842666666667 -s 3 -d 2 -p ack -e 40 -c 1 -i 34 -a 1 -x {3.1 0.0 -1 ------- null}
r -t 1.14986666666667 -s 2 -d 0 -p ack -e 40 -c 1 -i 32 -a 1 -x {3.1 0.0 3 ------- null}
+ -t 1.14986666666667 -s 0 -d 2 -p tcp -e 1040 -c 1 -i 35 -a 1 -x {0.0 3.1 7 ------- null}
- -t 1.14986666666667 -s 0 -d 2 -p tcp -e 1040 -c 1 -i 35 -a 1 -x {0.0 3.1 7 ------- null}
h -t 1.14986666666667 -s 0 -d 2 -p tcp -e 1040 -c 1 -i 35 -a 1 -x {0.0 3.1 -1 ------- null}
+ -t 1.14986666666667 -s 0 -d 2 -p tcp -e 1040 -c 1 -i 36 -a 1 -x {0.0 3.1 8 ------- null}
r -t 1.15309333333333 -s 3 -d 2 -p ack -e 40 -c 1 -i 33 -a 1 -x {3.1 0.0 4 ------- null}
+ -t 1.15309333333333 -s 2 -d 0 -p ack -e 40 -c 1 -i 33 -a 1 -x {3.1 0.0 4 ------- null}
- -t 1.15309333333333 -s 2 -d 0 -p ack -e 40 -c 1 -i 33 -a 1 -x {3.1 0.0 4 ------- null}
h -t 1.15309333333333 -s 2 -d 0 -p ack -e 40 -c 1 -i 33 -a 1 -x {3.1 0.0 -1 ------- null}
r -t 1.15429333333333 -s 2 -d 3 -p tcp -e 1040 -c 1 -i 31 -a 1 -x {0.0 3.1 6 ------- null}
+ -t 1.15429333333333 -s 3 -d 2 -p ack -e 40 -c 1 -i 37 -a 1 -x {3.1 0.0 6 ------- null}
- -t 1.15429333333333 -s 3 -d 2 -p ack -e 40 -c 1 -i 37 -a 1 -x {3.1 0.0 6 ------- null}
h -t 1.15429333333333 -s 3 -d 2 -p ack -e 40 -c 1 -i 37 -a 1 -x {3.1 0.0 -1 ------- null}
- -t 1.15818666666667 -s 0 -d 2 -p tcp -e 1040 -c 1 -i 36 -a 1 -x {0.0 3.1 8 ------- null}
h -t 1.15818666666667 -s 0 -d 2 -p tcp -e 1040 -c 1 -i 36 -a 1 -x {0.0 3.1 -1 ------- null}
r -t 1.15864 -s 3 -d 2 -p ack -e 40 -c 1 -i 34 -a 1 -x {3.1 0.0 5 ------- null}
+ -t 1.15864 -s 2 -d 0 -p ack -e 40 -c 1 -i 34 -a 1 -x {3.1 0.0 5 ------- null}
- -t 1.15864 -s 2 -d 0 -p ack -e 40 -c 1 -i 34 -a 1 -x {3.1 0.0 5 ------- null}
h -t 1.15864 -s 2 -d 0 -p ack -e 40 -c 1 -i 34 -a 1 -x {3.1 0.0 -1 ------- null}
r -t 1.16341333333333 -s 2 -d 0 -p ack -e 40 -c 1 -i 33 -a 1 -x {3.1 0.0 4 ------- null}
+ -t 1.16341333333333 -s 0 -d 2 -p tcp -e 1040 -c 1 -i 38 -a 1 -x {0.0 3.1 9 ------- null}
+ -t 1.16341333333333 -s 0 -d 2 -p tcp -e 1040 -c 1 -i 39 -a 1 -x {0.0 3.1 10 ------- null}
r -t 1.16450666666667 -s 3 -d 2 -p ack -e 40 -c 1 -i 37 -a 1 -x {3.1 0.0 6 ------- null}
+ -t 1.16450666666667 -s 2 -d 0 -p ack -e 40 -c 1 -i 37 -a 1 -x {3.1 0.0 6 ------- null}
- -t 1.16450666666667 -s 2 -d 0 -p ack -e 40 -c 1 -i 37 -a 1 -x {3.1 0.0 6 ------- null}
h -t 1.16450666666667 -s 2 -d 0 -p ack -e 40 -c 1 -i 37 -a 1 -x {3.1 0.0 -1 ------- null}
- -t 1.16650666666667 -s 0 -d 2 -p tcp -e 1040 -c 1 -i 38 -a 1 -x {0.0 3.1 9 ------- null}
h -t 1.16650666666667 -s 0 -d 2 -p tcp -e 1040 -c 1 -i 38 -a 1 -x {0.0 3.1 -1 ------- null}
r -t 1.16818666666667 -s 0 -d 2 -p tcp -e 1040 -c 1 -i 35 -a 1 -x {0.0 3.1 7 ------- null}
+ -t 1.16818666666667 -s 2 -d 3 -p tcp -e 1040 -c 1 -i 35 -a 1 -x {0.0 3.1 7 ------- null}
- -t 1.16818666666667 -s 2 -d 3 -p tcp -e 1040 -c 1 -i 35 -a 1 -x {0.0 3.1 7 ------- null}
h -t 1.16818666666667 -s 2 -d 3 -p tcp -e 1040 -c 1 -i 35 -a 1 -x {0.0 3.1 -1 ------- null}
r -t 1.16896 -s 2 -d 0 -p ack -e 40 -c 1 -i 34 -a 1 -x {3.1 0.0 5 ------- null}
+ -t 1.16896 -s 0 -d 2 -p tcp -e 1040 -c 1 -i 40 -a 1 -x {0.0 3.1 11 ------- null}
+ -t 1.16896 -s 0 -d 2 -p tcp -e 1040 -c 1 -i 41 -a 1 -x {0.0 3.1 12 ------- null}
r -t 1.17482666666667 -s 2 -d 0 -p ack -e 40 -c 1 -i 37 -a 1 -x {3.1 0.0 6 ------- null}
+ -t 1.17482666666667 -s 0 -d 2 -p tcp -e 1040 -c 1 -i 42 -a 1 -x {0.0 3.1 13 ------- null}
+ -t 1.17482666666667 -s 0 -d 2 -p tcp -e 1040 -c 1 -i 43 -a 1 -x {0.0 3.1 14 ------- null}
- -t 1.17482666666667 -s 0 -d 2 -p tcp -e 1040 -c 1 -i 39 -a 1 -x {0.0 3.1 10 ------- null}
h -t 1.17482666666667 -s 0 -d 2 -p tcp -e 1040 -c 1 -i 39 -a 1 -x {0.0 3.1 -1 ------- null}
r -t 1.17650666666667 -s 0 -d 2 -p tcp -e 1040 -c 1 -i 36 -a 1 -x {0.0 3.1 8 ------- null}
+ -t 1.17650666666667 -s 2 -d 3 -p tcp -e 1040 -c 1 -i 36 -a 1 -x {0.0 3.1 8 ------- null}
- -t 1.17650666666667 -s 2 -d 3 -p tcp -e 1040 -c 1 -i 36 -a 1 -x {0.0 3.1 8 ------- null}
h -t 1.17650666666667 -s 2 -d 3 -p tcp -e 1040 -c 1 -i 36 -a 1 -x {0.0 3.1 -1 ------- null}
- -t 1.18314666666667 -s 0 -d 2 -p tcp -e 1040 -c 1 -i 40 -a 1 -x {0.0 3.1 11 ------- null}
h -t 1.18314666666667 -s 0 -d 2 -p tcp -e 1040 -c 1 -i 40 -a 1 -x {0.0 3.1 -1 ------- null}
r -t 1.18373333333333 -s 2 -d 3 -p tcp -e 1040 -c 1 -i 35 -a 1 -x {0.0 3.1 7 ------- null}
+ -t 1.18373333333333 -s 3 -d 2 -p ack -e 40 -c 1 -i 44 -a 1 -x {3.1 0.0 7 ------- null}
- -t 1.18373333333333 -s 3 -d 2 -p ack -e 40 -c 1 -i 44 -a 1 -x {3.1 0.0 7 ------- null}
h -t 1.18373333333333 -s 3 -d 2 -p ack -e 40 -c 1 -i 44 -a 1 -x {3.1 0.0 -1 ------- null}
r -t 1.18482666666667 -s 0 -d 2 -p tcp -e 1040 -c 1 -i 38 -a 1 -x {0.0 3.1 9 ------- null}
+ -t 1.18482666666667 -s 2 -d 3 -p tcp -e 1040 -c 1 -i 38 -a 1 -x {0.0 3.1 9 ------- null}
- -t 1.18482666666667 -s 2 -d 3 -p tcp -e 1040 -c 1 -i 38 -a 1 -x {0.0 3.1 9 ------- null}
h -t 1.18482666666667 -s 2 -d 3 -p tcp -e 1040 -c 1 -i 38 -a 1 -x {0.0 3.1 -1 ------- null}
- -t 1.19146666666667 -s 0 -d 2 -p tcp -e 1040 -c 1 -i 41 -a 1 -x {0.0 3.1 12 ------- null}
h -t 1.19146666666667 -s 0 -d 2 -p tcp -e 1040 -c 1 -i 41 -a 1 -x {0.0 3.1 -1 ------- null}
r -t 1.19205333333333 -s 2 -d 3 -p tcp -e 1040 -c 1 -i 36 -a 1 -x {0.0 3.1 8 ------- null}
+ -t 1.19205333333333 -s 3 -d 2 -p ack -e 40 -c 1 -i 45 -a 1 -x {3.1 0.0 8 ------- null}
- -t 1.19205333333333 -s 3 -d 2 -p ack -e 40 -c 1 -i 45 -a 1 -x {3.1 0.0 8 ------- null}
h -t 1.19205333333333 -s 3 -d 2 -p ack -e 40 -c 1 -i 45 -a 1 -x {3.1 0.0 -1 ------- null}
r -t 1.19314666666667 -s 0 -d 2 -p tcp -e 1040 -c 1 -i 39 -a 1 -x {0.0 3.1 10 ------- null}
+ -t 1.19314666666667 -s 2 -d 3 -p tcp -e 1040 -c 1 -i 39 -a 1 -x {0.0 3.1 10 ------- null}
- -t 1.19314666666667 -s 2 -d 3 -p tcp -e 1040 -c 1 -i 39 -a 1 -x {0.0 3.1 10 ------- null}
h -t 1.19314666666667 -s 2 -d 3 -p tcp -e 1040 -c 1 -i 39 -a 1 -x {0.0 3.1 -1 ------- null}
r -t 1.19394666666667 -s 3 -d 2 -p ack -e 40 -c 1 -i 44 -a 1 -x {3.1 0.0 7 ------- null}
+ -t 1.19394666666667 -s 2 -d 0 -p ack -e 40 -c 1 -i 44 -a 1 -x {3.1 0.0 7 ------- null}
- -t 1.19394666666667 -s 2 -d 0 -p ack -e 40 -c 1 -i 44 -a 1 -x {3.1 0.0 7 ------- null}
h -t 1.19394666666667 -s 2 -d 0 -p ack -e 40 -c 1 -i 44 -a 1 -x {3.1 0.0 -1 ------- null}
- -t 1.19978666666667 -s 0 -d 2 -p tcp -e 1040 -c 1 -i 42 -a 1 -x {0.0 3.1 13 ------- null}
h -t 1.19978666666667 -s 0 -d 2 -p tcp -e 1040 -c 1 -i 42 -a 1 -x {0.0 3.1 -1 ------- null}
+ -t 1.2 -s 1 -d 2 -p cbr -e 1000 -c 0 -i 46 -a 0 -x {1.0 3.0 22 ------- null}
- -t 1.2 -s 1 -d 2 -p cbr -e 1000 -c 0 -i 46 -a 0 -x {1.0 3.0 22 ------- null}
h -t 1.2 -s 1 -d 2 -p cbr -e 1000 -c 0 -i 46 -a 0 -x {1.0 3.0 -1 ------- null}
+ -t 1.2 -s 1 -d 2 -p cbr -e 500 -c 0 -i 47 -a 0 -x {1.0 3.0 23 ------- null}
r -t 1.20037333333333 -s 2 -d 3 -p tcp -e 1040 -c 1 -i 38 -a 1 -x {0.0 3.1 9 ------- null}
+ -t 1.20037333333333 -s 3 -d 2 -p ack -e 40 -c 1 -i 48 -a 1 -x {3.1 0.0 9 ------- null}