h 0.1 2 10 cbr 500 ------- 1 2.0 9.0 0 0
h 0.105 2 10 cbr 500 ------- 1 2.0 9.0 1 1
+ 0.11 2 10 cbr 500 ------- 1 2.0 9.0 0 0
- 0.11 2 10 cbr 500 ------- 1 2.0 9.0 0 0
h 0.11 2 10 cbr 500 ------- 1 2.0 9.0 2 2
+ 0.115 2 10 cbr 500 ------- 1 2.0 9.0 1 1
- 0.115 2 10 cbr 500 ------- 1 2.0 9.0 1 1
h 0.115 2 10 cbr 500 ------- 1 2.0 9.0 3 3
+ 0.12 2 10 cbr 500 ------- 1 2.0 9.0 2 2
- 0.12 2 10 cbr 500 ------- 1 2.0 9.0 2 2
h 0.12 2 10 cbr 500 ------- 1 2.0 9.0 4 4
r 0.124116 10 4 cbr 500 ------- 1 2.0 9.0 0 0
d 0.124116 4 5 cbr 500 ------- 1 2.0 9.0 0 0
+ 0.125 2 10 cbr 500 ------- 1 2.0 9.0 3 3
- 0.125 2 10 cbr 500 ------- 1 2.0 9.0 3 3
h 0.125 2 10 cbr 500 ------- 1 2.0 9.0 5 5
r 0.129116 10 4 cbr 500 ------- 1 2.0 9.0 1 1
d 0.129116 4 5 cbr 500 ------- 1 2.0 9.0 1 1
+ 0.13 2 10 cbr 500 ------- 1 2.0 9.0 4 4
- 0.13 2 10 cbr 500 ------- 1 2.0 9.0 4 4
h 0.13 2 10 cbr 500 ------- 1 2.0 9.0 6 6
r 0.134116 10 4 cbr 500 ------- 1 2.0 9.0 2 2
+ 0.134116 4 5 cbr 500 ------- 1 2.0 9.0 2 2
- 0.134116 4 5 cbr 500 ------- 1 2.0 9.0 2 2
+ 0.135 2 10 cbr 500 ------- 1 2.0 9.0 5 5
- 0.135 2 10 cbr 500 ------- 1 2.0 9.0 5 5
h 0.135 2 10 cbr 500 ------- 1 2.0 9.0 7 7
r 0.139116 10 4 cbr 500 ------- 1 2.0 9.0 3 3
+ 0.139116 4 5 cbr 500 ------- 1 2.0 9.0 3 3
- 0.139116 4 5 cbr 500 ------- 1 2.0 9.0 3 3
+ 0.14 2 10 cbr 500 ------- 1 2.0 9.0 6 6
- 0.14 2 10 cbr 500 ------- 1 2.0 9.0 6 6
h 0.14 2 10 cbr 500 ------- 1 2.0 9.0 8 8
r 0.144116 10 4 cbr 500 ------- 1 2.0 9.0 4 4
+ 0.144116 4 5 cbr 500 ------- 1 2.0 9.0 4 4
- 0.144116 4 5 cbr 500 ------- 1 2.0 9.0 4 4
+ 0.145 2 10 cbr 500 ------- 1 2.0 9.0 7 7
- 0.145 2 10 cbr 500 ------- 1 2.0 9.0 7 7
h 0.145 2 10 cbr 500 ------- 1 2.0 9.0 9 9
r 0.149116 10 4 cbr 500 ------- 1 2.0 9.0 5 5
+ 0.149116 4 5 cbr 500 ------- 1 2.0 9.0 5 5
- 0.149116 4 5 cbr 500 ------- 1 2.0 9.0 5 5
+ 0.15 2 10 cbr 500 ------- 1 2.0 9.0 8 8
- 0.15 2 10 cbr 500 ------- 1 2.0 9.0 8 8
h 0.15 2 10 cbr 500 ------- 1 2.0 9.0 10 10
r 0.154116 10 4 cbr 500 ------- 1 2.0 9.0 6 6
+ 0.154116 4 5 cbr 500 ------- 1 2.0 9.0 6 6
- 0.154116 4 5 cbr 500 ------- 1 2.0 9.0 6 6
+ 0.155 2 10 cbr 500 ------- 1 2.0 9.0 9 9
- 0.155 2 10 cbr 500 ------- 1 2.0 9.0 9 9
h 0.155 2 10 cbr 500 ------- 1 2.0 9.0 11 11
r 0.159116 10 4 cbr 500 ------- 1 2.0 9.0 7 7
+ 0.159116 4 5 cbr 500 ------- 1 2.0 9.0 7 7
- 0.159116 4 5 cbr 500 ------- 1 2.0 9.0 7 7
+ 0.16 2 10 cbr 500 ------- 1 2.0 9.0 10 10
- 0.16 2 10 cbr 500 ------- 1 2.0 9.0 10 10
h 0.16 2 10 cbr 500 ------- 1 2.0 9.0 12 12
r 0.164116 10 4 cbr 500 ------- 1 2.0 9.0 8 8
+ 0.164116 4 5 cbr 500 ------- 1 2.0 9.0 8 8
- 0.164116 4 5 cbr 500 ------- 1 2.0 9.0 8 8
+ 0.165 2 10 cbr 500 ------- 1 2.0 9.0 11 11
- 0.165 2 10 cbr 500 ------- 1 2.0 9.0 11 11
h 0.165 2 10 cbr 500 ------- 1 2.0 9.0 13 13
r 0.168116 4 5 cbr 500 ------- 1 2.0 9.0 2 2
h 0.168116 5 11 cbr 500 ------- 1 2.0 9.0 2 2
r 0.169116 10 4 cbr 500 ------- 1 2.0 9.0 9 9
+ 0.169116 4 5 cbr 500 ------- 1 2.0 9.0 9 9
- 0.169116 4 5 cbr 500 ------- 1 2.0 9.0 9 9
+ 0.17 2 10 cbr 500 ------- 1 2.0 9.0 12 12
- 0.17 2 10 cbr 500 ------- 1 2.0 9.0 12 12
h 0.17 2 10 cbr 500 ------- 1 2.0 9.0 14 14
r 0.173116 4 5 cbr 500 ------- 1 2.0 9.0 3 3
h 0.173116 5 11 cbr 500 ------- 1 2.0 9.0 3 3
r 0.174116 10 4 cbr 500 ------- 1 2.0 9.0 10 10
+ 0.174116 4 5 cbr 500 ------- 1 2.0 9.0 10 10
- 0.174116 4 5 cbr 500 ------- 1 2.0 9.0 10 10
+ 0.175 2 10 cbr 500 ------- 1 2.0 9.0 13 13
- 0.175 2 10 cbr 500 ------- 1 2.0 9.0 13 13
h 0.175 2 10 cbr 500 ------- 1 2.0 9.0 15 15
+ 0.178116 5 11 cbr 500 ------- 1 2.0 9.0 2 2
- 0.178116 5 11 cbr 500 ------- 1 2.0 9.0 2 2
r 0.178116 4 5 cbr 500 ------- 1 2.0 9.0 4 4
h 0.178116 5 11 cbr 500 ------- 1 2.0 9.0 4 4
r 0.179116 10 4 cbr 500 ------- 1 2.0 9.0 11 11
d 0.179116 4 5 cbr 500 ------- 1 2.0 9.0 11 11
+ 0.18 2 10 cbr 500 ------- 1 2.0 9.0 14 14
- 0.18 2 10 cbr 500 ------- 1 2.0 9.0 14 14
h 0.18 2 10 cbr 500 ------- 1 2.0 9.0 16 16
r 0.183116 4 5 cbr 500 ------- 1 2.0 9.0 5 5
h 0.183116 5 11 cbr 500 ------- 1 2.0 9.0 5 5
+ 0.183116 5 11 cbr 500 ------- 1 2.0 9.0 3 3
- 0.183116 5 11 cbr 500 ------- 1 2.0 9.0 3 3
r 0.184116 10 4 cbr 500 ------- 1 2.0 9.0 12 12
+ 0.184116 4 5 cbr 500 ------- 1 2.0 9.0 12 12
- 0.184116 4 5 cbr 500 ------- 1 2.0 9.0 12 12
+ 0.185 2 10 cbr 500 ------- 1 2.0 9.0 15 15
- 0.185 2 10 cbr 500 ------- 1 2.0 9.0 15 15
h 0.185 2 10 cbr 500 ------- 1 2.0 9.0 17 17
r 0.188116 4 5 cbr 500 ------- 1 2.0 9.0 6 6
h 0.188116 5 11 cbr 500 ------- 1 2.0 9.0 6 6
+ 0.188116 5 11 cbr 500 ------- 1 2.0 9.0 4 4
- 0.188116 5 11 cbr 500 ------- 1 2.0 9.0 4 4
r 0.189116 10 4 cbr 500 ------- 1 2.0 9.0 13 13
+ 0.189116 4 5 cbr 500 ------- 1 2.0 9.0 13 13
- 0.189116 4 5 cbr 500 ------- 1 2.0 9.0 13 13
+ 0.19 2 10 cbr 500 ------- 1 2.0 9.0 16 16
- 0.19 2 10 cbr 500 ------- 1 2.0 9.0 16 16
h 0.19 2 10 cbr 500 ------- 1 2.0 9.0 18 18
r 0.192232 11 9 cbr 500 ------- 1 2.0 9.0 2 2
r 0.193116 4 5 cbr 500 ------- 1 2.0 9.0 7 7
h 0.193116 5 11 cbr 500 ------- 1 2.0 9.0 7 7
+ 0.193116 5 11 cbr 500 ------- 1 2.0 9.0 5 5
- 0.193116 5 11 cbr 500 ------- 1 2.0 9.0 5 5
r 0.194116 10 4 cbr 500 ------- 1 2.0 9.0 14 14
+ 0.194116 4 5 cbr 500 ------- 1 2.0 9.0 14 14
- 0.194116 4 5 cbr 500 ------- 1 2.0 9.0 14 14
+ 0.195 2 10 cbr 500 ------- 1 2.0 9.0 17 17
- 0.195 2 10 cbr 500 ------- 1 2.0 9.0 17 17
h 0.195 2 10 cbr 500 ------- 1 2.0 9.0 19 19
r 0.197232 11 9 cbr 500 ------- 1 2.0 9.0 3 3
r 0.198116 4 5 cbr 500 ------- 1 2.0 9.0 8 8
h 0.198116 5 11 cbr 500 ------- 1 2.0 9.0 8 8
+ 0.198116 5 11 cbr 500 ------- 1 2.0 9.0 6 6
- 0.198116 5 11 cbr 500 ------- 1 2.0 9.0 6 6
r 0.199116 10 4 cbr 500 ------- 1 2.0 9.0 15 15
+ 0.199116 4 5 cbr 500 ------- 1 2.0 9.0 15 15
- 0.199116 4 5 cbr 500 ------- 1 2.0 9.0 15 15
+ 0.2 2 10 cbr 500 ------- 1 2.0 9.0 18 18
- 0.2 2 10 cbr 500 ------- 1 2.0 9.0 18 18
h 0.2 2 10 cbr 500 ------- 1 2.0 9.0 20 20
r 0.202232 11 9 cbr 500 ------- 1 2.0 9.0 4 4
r 0.203116 4 5 cbr 500 ------- 1 2.0 9.0 9 9
h 0.203116 5 11 cbr 500 ------- 1 2.0 9.0 9 9
+ 0.203116 5 11 cbr 500 ------- 1 2.0 9.0 7 7
- 0.203116 5 11 cbr 500 ------- 1 2.0 9.0 7 7
r 0.204116 10 4 cbr 500 ------- 1 2.0 9.0 16 16
+ 0.204116 4 5 cbr 500 ------- 1 2.0 9.0 16 16
- 0.204116 4 5 cbr 500 ------- 1 2.0 9.0 16 16
+ 0.205 2 10 cbr 500 ------- 1 2.0 9.0 19 19
- 0.205 2 10 cbr 500 ------- 1 2.0 9.0 19 19
h 0.205 2 10 cbr 500 ------- 1 2.0 9.0 21 21
r 0.207232 11 9 cbr 500 ------- 1 2.0 9.0 5 5
r 0.208116 4 5 cbr 500 ------- 1 2.0 9.0 10 10
h 0.208116 5 11 cbr 500 ------- 1 2.0 9.0 10 10
+ 0.208116 5 11 cbr 500 ------- 1 2.0 9.0 8 8
- 0.208116 5 11 cbr 500 ------- 1 2.0 9.0 8 8
r 0.209116 10 4 cbr 500 ------- 1 2.0 9.0 17 17
d 0.209116 4 5 cbr 500 ------- 1 2.0 9.0 17 17
+ 0.21 2 10 cbr 500 ------- 1 2.0 9.0 20 20
- 0.21 2 10 cbr 500 ------- 1 2.0 9.0 20 20
h 0.21 2 10 cbr 500 ------- 1 2.0 9.0 22 22
r 0.212232 11 9 cbr 500 ------- 1 2.0 9.0 6 6
+ 0.213116 5 11 cbr 500 ------- 1 2.0 9.0 9 9
- 0.213116 5 11 cbr 500 ------- 1 2.0 9.0 9 9
r 0.214116 10 4 cbr 500 ------- 1 2.0 9.0 18 18
+ 0.214116 4 5 cbr 500 ------- 1 2.0 9.0 18 18
- 0.214116 4 5 cbr 500 ------- 1 2.0 9.0 18 18
+ 0.215 2 10 cbr 500 ------- 1 2.0 9.0 21 21
- 0.215 2 10 cbr 500 ------- 1 2.0 9.0 21 21
h 0.215 2 10 cbr 500 ------- 1 2.0 9.0 23 23
r 0.217232 11 9 cbr 500 ------- 1 2.0 9.0 7 7
r 0.218116 4 5 cbr 500 ------- 1 2.0 9.0 12 12
h 0.218116 5 11 cbr 500 ------- 1 2.0 9.0 12 12
+ 0.218116 5 11 cbr 500 ------- 1 2.0 9.0 10 10
- 0.218116 5 11 cbr 500 ------- 1 2.0 9.0 10 10
r 0.219116 10 4 cbr 500 ------- 1 2.0 9.0 19 19
+ 0.219116 4 5 cbr 500 ------- 1 2.0 9.0 19 19
- 0.219116 4 5 cbr 500 ------- 1 2.0 9.0 19 19
+ 0.22 2 10 cbr 500 ------- 1 2.0 9.0 22 22
- 0.22 2 10 cbr 500 ------- 1 2.0 9.0 22 22
h 0.22 2 10 cbr 500 ------- 1 2.0 9.0 24 24
r 0.222232 11 9 cbr 500 ------- 1 2.0 9.0 8 8
r 0.223116 4 5 cbr 500 ------- 1 2.0 9.0 13 13
h 0.223116 5 11 cbr 500 ------- 1 2.0 9.0 13 13
r 0.224116 10 4 cbr 500 ------- 1 2.0 9.0 20 20
+ 0.224116 4 5 cbr 500 ------- 1 2.0 9.0 20 20
- 0.224116 4 5 cbr 500 ------- 1 2.0 9.0 20 20
+ 0.225 2 10 cbr 500 ------- 1 2.0 9.0 23 23
- 0.225 2 10 cbr 500 ------- 1 2.0 9.0 23 23
h 0.225 2 10 cbr 500 ------- 1 2.0 9.0 25 25
r 0.227232 11 9 cbr 500 ------- 1 2.0 9.0 9 9
r 0.228116 4 5 cbr 500 ------- 1 2.0 9.0 14 14
h 0.228116 5 11 cbr 500 ------- 1 2.0 9.0 14 14
+ 0.228116 5 11 cbr 500 ------- 1 2.0 9.0 12 12
- 0.228116 5 11 cbr 500 ------- 1 2.0 9.0 12 12
r 0.229116 10 4 cbr 500 ------- 1 2.0 9.0 21 21
+ 0.229116 4 5 cbr 500 ------- 1 2.0 9.0 21 21
- 0.229116 4 5 cbr 500 ------- 1 2.0 9.0 21 21
+ 0.23 2 10 cbr 500 ------- 1 2.0 9.0 24 24
- 0.23 2 10 cbr 500 ------- 1 2.0 9.0 24 24
h 0.23 2 10 cbr 500 ------- 1 2.0 9.0 26 26
r 0.232232 11 9 cbr 500 ------- 1 2.0 9.0 10 10
r 0.233116 4 5 cbr 500 ------- 1 2.0 9.0 15 15
h 0.233116 5 11 cbr 500 ------- 1 2.0 9.0 15 15
+ 0.233116 5 11 cbr 500 ------- 1 2.0 9.0 13 13
- 0.233116 5 11 cbr 500 ------- 1 2.0 9.0 13 13
r 0.234116 10 4 cbr 500 ------- 1 2.0 9.0 22 22
+ 0.234116 4 5 cbr 500 ------- 1 2.0 9.0 22 22
- 0.234116 4 5 cbr 500 ------- 1 2.0 9.0 22 22
+ 0.235 2 10 cbr 500 ------- 1 2.0 9.0 25 25
- 0.235 2 10 cbr 500 ------- 1 2.0 9.0 25 25
h 0.235 2 10 cbr 500 ------- 1 2.0 9.0 27 27
r 0.238116 4 5 cbr 500 ------- 1 2.0 9.0 16 16
h 0.238116 5 11 cbr 500 ------- 1 2.0 9.0 16 16
+ 0.238116 5 11 cbr 500 ------- 1 2.0 9.0 14 14
- 0.238116 5 11 cbr 500 ------- 1 2.0 9.0 14 14
r 0.239116 10 4 cbr 500 ------- 1 2.0 9.0 23 23
+ 0.239116 4 5 cbr 500 ------- 1 2.0 9.0 23 23
- 0.239116 4 5 cbr 500 ------- 1 2.0 9.0 23 23
+ 0.24 2 10 cbr 500 ------- 1 2.0 9.0 26 26
- 0.24 2 10 cbr 500 ------- 1 2.0 9.0 26 26
h 0.24 2 10 cbr 500 ------- 1 2.0 9.0 28 28
r 0.242232 11 9 cbr 500 ------- 1 2.0 9.0 12 12
+ 0.243116 5 11 cbr 500 ------- 1 2.0 9.0 15 15
- 0.243116 5 11 cbr 500 ------- 1 2.0 9.0 15 15
r 0.244116 10 4 cbr 500 ------- 1 2.0 9.0 24 24
+ 0.244116 4 5 cbr 500 ------- 1 2.0 9.0 24 24
- 0.244116 4 5 cbr 500 ------- 1 2.0 9.0 24 24
+ 0.245 2 10 cbr 500 ------- 1 2.0 9.0 27 27
- 0.245 2 10 cbr 500 ------- 1 2.0 9.0 27 27
h 0.245 2 10 cbr 500 ------- 1 2.0 9.0 29 29
r 0.247232 11 9 cbr 500 ------- 1 2.0 9.0 13 13
r 0.248116 4 5 cbr 500 ------- 1 2.0 9.0 18 18
h 0.248116 5 11 cbr 500 ------- 1 2.0 9.0 18 18
+ 0.248116 5 11 cbr 500 ------- 1 2.0 9.0 16 16
- 0.248116 5 11 cbr 500 ------- 1 2.0 9.0 16 16
r 0.249116 10 4 cbr 500 ------- 1 2.0 9.0 25 25
+ 0.249116 4 5 cbr 500 ------- 1 2.0 9.0 25 25
- 0.249116 4 5 cbr 500 ------- 1 2.0 9.0 25 25
+ 0.25 2 10 cbr 500 ------- 1 2.0 9.0 28 28
- 0.25 2 10 cbr 500 ------- 1 2.0 9.0 28 28
h 0.25 2 10 cbr 500 ------- 1 2.0 9.0 30 30
r 0.252232 11 9 cbr 500 ------- 1 2.0 9.0 14 14
r 0.253116 4 5 cbr 500 ------- 1 2.0 9.0 19 19
h 0.253116 5 11 cbr 500 ------- 1 2.0 9.0 19 19
r 0.254116 10 4 cbr 500 ------- 1 2.0 9.0 26 26
+ 0.254116 4 5 cbr 500 ------- 1 2.0 9.0 26 26
- 0.254116 4 5 cbr 500 ------- 1 2.0 9.0 26 26
+ 0.255 2 10 cbr 500 ------- 1 2.0 9.0 29 29
- 0.255 2 10 cbr 500 ------- 1 2.0 9.0 29 29
h 0.255 2 10 cbr 500 ------- 1 2.0 9.0 31 31
r 0.257232 11 9 cbr 500 ------- 1 2.0 9.0 15 15
r 0.258116 4 5 cbr 500 ------- 1 2.0 9.0 20 20
h 0.258116 5 11 cbr 500 ------- 1 2.0 9.0 20 20
+ 0.258116 5 11 cbr 500 ------- 1 2.0 9.0 18 18
- 0.258116 5 11 cbr 500 ------- 1 2.0 9.0 18 18
r 0.259116 10 4 cbr 500 ------- 1 2.0 9.0 27 27
+ 0.259116 4 5 cbr 500 ------- 1 2.0 9.0 27 27
- 0.259116 4 5 cbr 500 ------- 1 2.0 9.0 27 27
+ 0.26 2 10 cbr 500 ------- 1 2.0 9.0 30 30
- 0.26 2 10 cbr 500 ------- 1 2.0 9.0 30 30
h 0.26 2 10 cbr 500 ------- 1 2.0 9.0 32 32
r 0.262232 11 9 cbr 500 ------- 1 2.0 9.0 16 16
r 0.263116 4 5 cbr 500 ------- 1 2.0 9.0 21 21
h 0.263116 5 11 cbr 500 ------- 1 2.0 9.0 21 21
+ 0.263116 5 11 cbr 500 ------- 1 2.0 9.0 19 19
- 0.263116 5 11 cbr 500 ------- 1 2.0 9.0 19 19
r 0.264116 10 4 cbr 500 ------- 1 2.0 9.0 28 28
+ 0.264116 4 5 cbr 500 ------- 1 2.0 9.0 28 28
- 0.264116 4 5 cbr 500 ------- 1 2.0 9.0 28 28
+ 0.265 2 10 cbr 500 ------- 1 2.0 9.0 31 31
- 0.265 2 10 cbr 500 ------- 1 2.0 9.0 31 31
h 0.265 2 10 cbr 500 ------- 1 2.0 9.0 33 33
r 0.268116 4 5 cbr 500 ------- 1 2.0 9.0 22 22
h 0.268116 5 11 cbr 500 ------- 1 2.0 9.0 22 22
+ 0.268116 5 11 cbr 500 ------- 1 2.0 9.0 20 20
- 0.268116 5 11 cbr 500 ------- 1 2.0 9.0 20 20
r 0.269116 10 4 cbr 500 ------- 1 2.0 9.0 29 29
+ 0.269116 4 5 cbr 500 ------- 1 2.0 9.0 29 29
- 0.269116 4 5 cbr 500 ------- 1 2.0 9.0 29 29
+ 0.27 2 10 cbr 500 ------- 1 2.0 9.0 32 32
- 0.27 2 10 cbr 500 ------- 1 2.0 9.0 32 32
h 0.27 2 10 cbr 500 ------- 1 2.0 9.0 34 34
r 0.272232 11 9 cbr 500 ------- 1 2.0 9.0 18 18
r 0.273116 4 5 cbr 500 ------- 1 2.0 9.0 23 23
h 0.273116 5 11 cbr 500 ------- 1 2.0 9.0 23 23
+ 0.273116 5 11 cbr 500 ------- 1 2.0 9.0 21 21
- 0.273116 5 11 cbr 500 ------- 1 2.0 9.0 21 21
r 0.274116 10 4 cbr 500 ------- 1 2.0 9.0 30 30
+ 0.274116 4 5 cbr 500 ------- 1 2.0 9.0 30 30
- 0.274116 4 5 cbr 500 ------- 1 2.0 9.0 30 30
+ 0.275 2 10 cbr 500 ------- 1 2.0 9.0 33 33
- 0.275 2 10 cbr 500 ------- 1 2.0 9.0 33 33
h 0.275 2 10 cbr 500 ------- 1 2.0 9.0 35 35
r 0.277232 11 9 cbr 500 ------- 1 2.0 9.0 19 19
r 0.278116 4 5 cbr 500 ------- 1 2.0 9.0 24 24
h 0.278116 5 11 cbr 500 ------- 1 2.0 9.0 24 24
+ 0.278116 5 11 cbr 500 ------- 1 2.0 9.0 22 22
- 0.278116 5 11 cbr 500 ------- 1 2.0 9.0 22 22
r 0.279116 10 4 cbr 500 ------- 1 2.0 9.0 31 31
+ 0.279116 4 5 cbr 500 ------- 1 2.0 9.0 31 31
- 0.279116 4 5 cbr 500 ------- 1 2.0 9.0 31 31
+ 0.28 2 10 cbr 500 ------- 1 2.0 9.0 34 34
- 0.28 2 10 cbr 500 ------- 1 2.0 9.0 34 34
h 0.28 2 10 cbr 500 ------- 1 2.0 9.0 36 36
r 0.282232 11 9 cbr 500 ------- 1 2.0 9.0 20 20
r 0.283116 4 5 cbr 500 ------- 1 2.0 9.0 25 25
h 0.283116 5 11 cbr 500 ------- 1 2.0 9.0 25 25
+ 0.283116 5 11 cbr 500 ------- 1 2.0 9.0 23 23
- 0.283116 5 11 cbr 500 ------- 1 2.0 9.0 23 23
r 0.284116 10 4 cbr 500 ------- 1 2.0 9.0 32 32
+ 0.284116 4 5 cbr 500 ------- 1 2.0 9.0 32 32
- 0.284116 4 5 cbr 500 ------- 1 2.0 9.0 32 32
+ 0.285 2 10 cbr 500 ------- 1 2.0 9.0 35 35
- 0.285 2 10 cbr 500 ------- 1 2.0 9.0 35 35
h 0.285 2 10 cbr 500 ------- 1 2.0 9.0 37 37
r 0.287232 11 9 cbr 500 ------- 1 2.0 9.0 21 21
r 0.288116 4 5 cbr 500 ------- 1 2.0 9.0 26 26
h 0.288116 5 11 cbr 500 ------- 1 2.0 9.0 26 26
+ 0.288116 5 11 cbr 500 ------- 1 2.0 9.0 24 24
- 0.288116 5 11 cbr 500 ------- 1 2.0 9.0 24 24
r 0.289116 10 4 cbr 500 ------- 1 2.0 9.0 33 33
+ 0.289116 4 5 cbr 500 ------- 1 2.0 9.0 33 33
- 0.289116 4 5 cbr 500 ------- 1 2.0 9.0 33 33
+ 0.29 2 10 cbr 500 ------- 1 2.0 9.0 36 36
- 0.29 2 10 cbr 500 ------- 1 2.0 9.0 36 36
h 0.29 2 10 cbr 500 ------- 1 2.0 9.0 38 38
r 0.292232 11 9 cbr 500 ------- 1 2.0 9.0 22 22
r 0.293116 4 5 cbr 500 ------- 1 2.0 9.0 27 27
h 0.293116 5 11 cbr 500 ------- 1 2.0 9.0 27 27
+ 0.293116 5 11 cbr 500 ------- 1 2.0 9.0 25 25
- 0.293116 5 11 cbr 500 ------- 1 2.0 9.0 25 25
r 0.294116 10 4 cbr 500 ------- 1 2.0 9.0 34 34
+ 0.294116 4 5 cbr 500 ------- 1 2.0 9.0 34 34
- 0.294116 4 5 cbr 500 ------- 1 2.0 9.0 34 34
+ 0.295 2 10 cbr 500 ------- 1 2.0 9.0 37 37
- 0.295 2 10 cbr 500 ------- 1 2.0 9.0 37 37
h 0.295 2 10 cbr 500 ------- 1 2.0 9.0 39 39
r 0.297232 11 9 cbr 500 ------- 1 2.0 9.0 23 23
r 0.298116 4 5 cbr 500 ------- 1 2.0 9.0 28 28
h 0.298116 5 11 cbr 500 ------- 1 2.0 9.0 28 28
+ 0.298116 5 11 cbr 500 ------- 1 2.0 9.0 26 26
- 0.298116 5 11 cbr 500 ------- 1 2.0 9.0 26 26
r 0.299116 10 4 cbr 500 ------- 1 2.0 9.0 35 35
+ 0.299116 4 5 cbr 500 ------- 1 2.0 9.0 35 35
- 0.299116 4 5 cbr 500 ------- 1 2.0 9.0 35 35
+ 0.3 2 10 cbr 500 ------- 1 2.0 9.0 38 38
- 0.3 2 10 cbr 500 ------- 1 2.0 9.0 38 38
h 0.3 2 10 cbr 500 ------- 1 2.0 9.0 40 40
r 0.302232 11 9 cbr 500 ------- 1 2.0 9.0 24 24
r 0.303116 4 5 cbr 500 ------- 1 2.0 9.0 29 29
h 0.303116 5 11 cbr 500 ------- 1 2.0 9.0 29 29
+ 0.303116 5 11 cbr 500 ------- 1 2.0 9.0 27 27
- 0.303116 5 11 cbr 500 ------- 1 2.0 9.0 27 27
r 0.304116 10 4 cbr 500 ------- 1 2.0 9.0 36 36
+ 0.304116 4 5 cbr 500 ------- 1 2.0 9.0 36 36
- 0.304116 4 5 cbr 500 ------- 1 2.0 9.0 36 36
+ 0.305 2 10 cbr 500 ------- 1 2.0 9.0 39 39
- 0.305 2 10 cbr 500 ------- 1 2.0 9.0 39 39
h 0.305 2 10 cbr 500 ------- 1 2.0 9.0 41 41
r 0.307232 11 9 cbr 500 ------- 1 2.0 9.0 25 25
r 0.308116 4 5 cbr 500 ------- 1 2.0 9.0 30 30
h 0.308116 5 11 cbr 500 ------- 1 2.0 9.0 30 30
+ 0.308116 5 11 cbr 500 ------- 1 2.0 9.0 28 28
- 0.308116 5 11 cbr 500 ------- 1 2.0 9.0 28 28
r 0.309116 10 4 cbr 500 ------- 1 2.0 9.0 37 37
+ 0.309116 4 5 cbr 500 ------- 1 2.0 9.0 37 37
- 0.309116 4 5 cbr 500 ------- 1 2.0 9.0 37 37
+ 0.31 2 10 cbr 500 ------- 1 2.0 9.0 40 40
- 0.31 2 10 cbr 500 ------- 1 2.0 9.0 40 40
h 0.31 2 10 cbr 500 ------- 1 2.0 9.0 42 42
r 0.312232 11 9 cbr 500 ------- 1 2.0 9.0 26 26
r 0.313116 4 5 cbr 500 ------- 1 2.0 9.0 31 31
h 0.313116 5 11 cbr 500 ------- 1 2.0 9.0 31 31
+ 0.313116 5 11 cbr 500 ------- 1 2.0 9.0 29 29
- 0.313116 5 11 cbr 500 ------- 1 2.0 9.0 29 29
r 0.314116 10 4 cbr 500 ------- 1 2.0 9.0 38 38
+ 0.314116 4 5 cbr 500 ------- 1 2.0 9.0 38 38
- 0.314116 4 5 cbr 500 ------- 1 2.0 9.0 38 38
+ 0.315 2 10 cbr 500 ------- 1 2.0 9.0 41 41
- 0.315 2 10 cbr 500 ------- 1 2.0 9.0 41 41
h 0.315 2 10 cbr 500 ------- 1 2.0 9.0 43 43
r 0.317232 11 9 cbr 500 ------- 1 2.0 9.0 27 27
r 0.318116 4 5 cbr 500 ------- 1 2.0 9.0 32 32
h 0.318116 5 11 cbr 500 ------- 1 2.0 9.0 32 32
+ 0.318116 5 11 cbr 500 ------- 1 2.0 9.0 30 30
- 0.318116 5 11 cbr 500 ------- 1 2.0 9.0 30 30
r 0.319116 10 4 cbr 500 ------- 1 2.0 9.0 39 39
+ 0.319116 4 5 cbr 500 ------- 1 2.0 9.0 39 39
- 0.319116 4 5 cbr 500 ------- 1 2.0 9.0 39 39
+ 0.32 2 10 cbr 500 ------- 1 2.0 9.0 42 42
- 0.32 2 10 cbr 500 ------- 1 2.0 9.0 42 42
h 0.32 2 10 cbr 500 ------- 1 2.0 9.0 44 44
r 0.322232 11 9 cbr 500 ------- 1 2.0 9.0 28 28
r 0.323116 4 5 cbr 500 ------- 1 2.0 9.0 33 33
h 0.323116 5 11 cbr 500 ------- 1 2.0 9.0 33 33
+ 0.323116 5 11 cbr 500 ------- 1 2.0 9.0 31 31
- 0.323116 5 11 cbr 500 ------- 1 2.0 9.0 31 31
r 0.324116 10 4 cbr 500 ------- 1 2.0 9.0 40 40
+ 0.324116 4 5 cbr 500 ------- 1 2.0 9.0 40 40
- 0.324116 4 5 cbr 500 ------- 1 2.0 9.0 40 40
+ 0.325 2 10 cbr 500 ------- 1 2.0 9.0 43 43
- 0.325 2 10 cbr 500 ------- 1 2.0 9.0 43 43
h 0.325 2 10 cbr 500 ------- 1 2.0 9.0 45 45
r 0.327232 11 9 cbr 500 ------- 1 2.0 9.0 29 29
r 0.328116 4 5 cbr 500 ------- 1 2.0 9.0 34 34
h 0.328116 5 11 cbr 500 ------- 1 2.0 9.0 34 34
+ 0.328116 5 11 cbr 500 ------- 1 2.0 9.0 32 32
- 0.328116 5 11 cbr 500 ------- 1 2.0 9.0 32 32
r 0.329116 10 4 cbr 500 ------- 1 2.0 9.0 41 41
d 0.329116 4 5 cbr 500 ------- 1 2.0 9.0 41 41
+ 0.33 2 10 cbr 500 ------- 1 2.0 9.0 44 44
- 0.33 2 10 cbr 500 ------- 1 2.0 9.0 44 44
h 0.33 2 10 cbr 500 ------- 1 2.0 9.0 46 46
r 0.332232 11 9 cbr 500 ------- 1 2.0 9.0 30 30
r 0.333116 4 5 cbr 500 ------- 1 2.0 9.0 35 35
h 0.333116 5 11 cbr 500 ------- 1 2.0 9.0 35 35
+ 0.333116 5 11 cbr 500 ------- 1 2.0 9.0 33 33
- 0.333116 5 11 cbr 500 ------- 1 2.0 9.0 33 33
r 0.334116 10 4 cbr 500 ------- 1 2.0 9.0 42 42
d 0.334116 4 5 cbr 500 ------- 1 2.0 9.0 42 42
+ 0.335 2 10 cbr 500 ------- 1 2.0 9.0 45 45
- 0.335 2 10 cbr 500 ------- 1 2.0 9.0 45 45
h 0.335 2 10 cbr 500 ------- 1 2.0 9.0 47 47
r 0.337232 11 9 cbr 500 ------- 1 2.0 9.0 31 31
r 0.338116 4 5 cbr 500 ------- 1 2.0 9.0 36 36
h 0.338116 5 11 cbr 500 ------- 1 2.0 9.0 36 36
+ 0.338116 5 11 cbr 500 ------- 1 2.0 9.0 34 34
- 0.338116 5 11 cbr 500 ------- 1 2.0 9.0 34 34
r 0.339116 10 4 cbr 500 ------- 1 2.0 9.0 43 43
+ 0.339116 4 5 cbr 500 ------- 1 2.0 9.0 43 43
- 0.339116 4 5 cbr 500 ------- 1 2.0 9.0 43 43
+ 0.34 2 10 cbr 500 ------- 1 2.0 9.0 46 46
- 0.34 2 10 cbr 500 ------- 1 2.0 9.0 46 46
h 0.34 2 10 cbr 500 ------- 1 2.0 9.0 48 48
r 0.342232 11 9 cbr 500 ------- 1 2.0 9.0 32 32
r 0.343116 4 5 cbr 500 ------- 1 2.0 9.0 37 37
h 0.343116 5 11 cbr 500 ------- 1 2.0 9.0 37 37
+ 0.343116 5 11 cbr 500 ------- 1 2.0 9.0 35 35
- 0.343116 5 11 cbr 500 ------- 1 2.0 9.0 35 35
r 0.344116 10 4 cbr 500 ------- 1 2.0 9.0 44 44
+ 0.344116 4 5 cbr 500 ------- 1 2.0 9.0 44 44
- 0.344116 4 5 cbr 500 ------- 1 2.0 9.0 44 44
+ 0.345 2 10 cbr 500 ------- 1 2.0 9.0 47 47
- 0.345 2 10 cbr 500 ------- 1 2.0 9.0 47 47
h 0.345 2 10 cbr 500 ------- 1 2.0 9.0 49 49
r 0.347232 11 9 cbr 500 ------- 1 2.0 9.0 33 33
r 0.348116 4 5 cbr 500 ------- 1 2.0 9.0 38 38
h 0.348116 5 11 cbr 500 ------- 1 2.0 9.0 38 38
+ 0.348116 5 11 cbr 500 ------- 1 2.0 9.0 36 36
- 0.348116 5 11 cbr 500 ------- 1 2.0 9.0 36 36
r 0.349116 10 4 cbr 500 ------- 1 2.0 9.0 45 45
+ 0.349116 4 5 cbr 500 ------- 1 2.0 9.0 45 45
- 0.349116 4 5 cbr 500 ------- 1 2.0 9.0 45 45
+ 0.35 2 10 cbr 500 ------- 1 2.0 9.0 48 48
- 0.35 2 10 cbr 500 ------- 1 2.0 9.0 48 48
h 0.35 2 10 cbr 500 ------- 1 2.0 9.0 50 50
r 0.352232 11 9 cbr 500 ------- 1 2.0 9.0 34 34
r 0.353116 4 5 cbr 500 ------- 1 2.0 9.0 39 39
h 0.353116 5 11 cbr 500 ------- 1 2.0 9.0 39 39
+ 0.353116 5 11 cbr 500 ------- 1 2.0 9.0 37 37
- 0.353116 5 11 cbr 500 ------- 1 2.0 9.0 37 37
r 0.354116 10 4 cbr 500 ------- 1 2.0 9.0 46 46
+ 0.354116 4 5 cbr 500 ------- 1 2.0 9.0 46 46
- 0.354116 4 5 cbr 500 ------- 1 2.0 9.0 46 46
+ 0.355 2 10 cbr 500 ------- 1 2.0 9.0 49 49
- 0.355 2 10 cbr 500 ------- 1 2.0 9.0 49 49
h 0.355 2 10 cbr 500 ------- 1 2.0 9.0 51 51
r 0.357232 11 9 cbr 500 ------- 1 2.0 9.0 35 35
r 0.358116 4 5 cbr 500 ------- 1 2.0 9.0 40 40
h 0.358116 5 11 cbr 500 ------- 1 2.0 9.0 40 40
+ 0.358116 5 11 cbr 500 ------- 1 2.0 9.0 38 38
- 0.358116 5 11 cbr 500 ------- 1 2.0 9.0 38 38
r 0.359116 10 4 cbr 500 ------- 1 2.0 9.0 47 47
+ 0.359116 4 5 cbr 500 ------- 1 2.0 9.0 47 47
- 0.359116 4 5 cbr 500 ------- 1 2.0 9.0 47 47
+ 0.36 2 10 cbr 500 ------- 1 2.0 9.0 50 50
- 0.36 2 10 cbr 500 ------- 1 2.0 9.0 50 50
h 0.36 2 10 cbr 500 ------- 1 2.0 9.0 52 52
r 0.362232 11 9 cbr 500 ------- 1 2.0 9.0 36 36
+ 0.363116 5 11 cbr 500 ------- 1 2.0 9.0 39 39
- 0.363116 5 11 cbr 500 ------- 1 2.0 9.0 39 39
r 0.364116 10 4 cbr 500 ------- 1 2.0 9.0 48 48
+ 0.364116 4 5 cbr 500 ------- 1 2.0 9.0 48 48
- 0.364116 4 5 cbr 500 ------- 1 2.0 9.0 48 48
+ 0.365 2 10 cbr 500 ------- 1 2.0 9.0 51 51
- 0.365 2 10 cbr 500 ------- 1 2.0 9.0 51 51
h 0.365 2 10 cbr 500 ------- 1 2.0 9.0 53 53
r 0.367232 11 9 cbr 500 ------- 1 2.0 9.0 37 37
+ 0.368116 5 11 cbr 500 ------- 1 2.0 9.0 40 40
- 0.368116 5 11 cbr 500 ------- 1 2.0 9.0 40 40
r 0.369116 10 4 cbr 500 ------- 1 2.0 9.0 49 49
+ 0.369116 4 5 cbr 500 ------- 1 2.0 9.0 49 49
- 0.369116 4 5 cbr 500 ------- 1 2.0 9.0 49 49
+ 0.37 2 10 cbr 500 ------- 1 2.0 9.0 52 52
- 0.37 2 10 cbr 500 ------- 1 2.0 9.0 52 52
h 0.37 2 10 cbr 500 ------- 1 2.0 9.0 54 54
r 0.372232 11 9 cbr 500 ------- 1 2.0 9.0 38 38
r 0.373116 4 5 cbr 500 ------- 1 2.0 9.0 43 43
h 0.373116 5 11 cbr 500 ------- 1 2.0 9.0 43 43
r 0.374116 10 4 cbr 500 ------- 1 2.0 9.0 50 50
+ 0.374116 4 5 cbr 500 ------- 1 2.0 9.0 50 50
- 0.374116 4 5 cbr 500 ------- 1 2.0 9.0 50 50
+ 0.375 2 10 cbr 500 ------- 1 2.0 9.0 53 53
- 0.375 2 10 cbr 500 ------- 1 2.0 9.0 53 53
h 0.375 2 10 cbr 500 ------- 1 2.0 9.0 55 55
r 0.377232 11 9 cbr 500 ------- 1 2.0 9.0 39 39
r 0.378116 4 5 cbr 500 ------- 1 2.0 9.0 44 44
h 0.378116 5 11 cbr 500 ------- 1 2.0 9.0 44 44
r 0.379116 10 4 cbr 500 ------- 1 2.0 9.0 51 51
+ 0.379116 4 5 cbr 500 ------- 1 2.0 9.0 51 51
- 0.379116 4 5 cbr 500 ------- 1 2.0 9.0 51 51
+ 0.38 2 10 cbr 500 ------- 1 2.0 9.0 54 54
- 0.38 2 10 cbr 500 ------- 1 2.0 9.0 54 54
h 0.38 2 10 cbr 500 ------- 1 2.0 9.0 56 56
r 0.382232 11 9 cbr 500 ------- 1 2.0 9.0 40 40
r 0.383116 4 5 cbr 500 ------- 1 2.0 9.0 45 45
h 0.383116 5 11 cbr 500 ------- 1 2.0 9.0 45 45
+ 0.383116 5 11 cbr 500 ------- 1 2.0 9.0 43 43
- 0.383116 5 11 cbr 500 ------- 1 2.0 9.0 43 43
r 0.384116 10 4 cbr 500 ------- 1 2.0 9.0 52 52
+ 0.384116 4 5 cbr 500 ------- 1 2.0 9.0 52 52
- 0.384116 4 5 cbr 500 ------- 1 2.0 9.0 52 52
+ 0.385 2 10 cbr 500 ------- 1 2.0 9.0 55 55
- 0.385 2 10 cbr 500 ------- 1 2.0 9.0 55 55
h 0.385 2 10 cbr 500 ------- 1 2.0 9.0 57 57
r 0.388116 4 5 cbr 500 ------- 1 2.0 9.0 46 46
h 0.388116 5 11 cbr 500 ------- 1 2.0 9.0 46 46
+ 0.388116 5 11 cbr 500 ------- 1 2.0 9.0 44 44
- 0.388116 5 11 cbr 500 ------- 1 2.0 9.0 44 44
r 0.389116 10 4 cbr 500 ------- 1 2.0 9.0 53 53
+ 0.389116 4 5 cbr 500 ------- 1 2.0 9.0 53 53
- 0.389116 4 5 cbr 500 ------- 1 2.0 9.0 53 53
+ 0.39 2 10 cbr 500 ------- 1 2.0 9.0 56 56
- 0.39 2 10 cbr 500 ------- 1 2.0 9.0 56 56
h 0.39 2 10 cbr 500 ------- 1 2.0 9.0 58 58
r 0.393116 4 5 cbr 500 ------- 1 2.0 9.0 47 47
h 0.393116 5 11 cbr 500 ------- 1 2.0 9.0 47 47
+ 0.393116 5 11 cbr 500 ------- 1 2.0 9.0 45 45
- 0.393116 5 11 cbr 500 ------- 1 2.0 9.0 45 45
r 0.394116 10 4 cbr 500 ------- 1 2.0 9.0 54 54
d 0.394116 4 5 cbr 500 ------- 1 2.0 9.0 54 54
+ 0.395 2 10 cbr 500 ------- 1 2.0 9.0 57 57
- 0.395 2 10 cbr 500 ------- 1 2.0 9.0 57 57
h 0.395 2 10 cbr 500 ------- 1 2.0 9.0 59 59
r 0.397232 11 9 cbr 500 ------- 1 2.0 9.0 43 43
r 0.398116 4 5 cbr 500 ------- 1 2.0 9.0 48 48
h 0.398116 5 11 cbr 500 ------- 1 2.0 9.0 48 48
+ 0.398116 5 11 cbr 500 ------- 1 2.0 9.0 46 46
- 0.398116 5 11 cbr 500 ------- 1 2.0 9.0 46 46
r 0.399116 10 4 cbr 500 ------- 1 2.0 9.0 55 55
+ 0.399116 4 5 cbr 500 ------- 1 2.0 9.0 55 55
- 0.399116 4 5 cbr 500 ------- 1 2.0 9.0 55 55
+ 0.4 2 10 cbr 500 ------- 1 2.0 9.0 58 58
- 0.4 2 10 cbr 500 ------- 1 2.0 9.0 58 58
h 0.4 2 10 cbr 500 ------- 1 2.0 9.0 60 60
r 0.402232 11 9 cbr 500 ------- 1 2.0 9.0 44 44
r 0.403116 4 5 cbr 500 ------- 1 2.0 9.0 49 49
h 0.403116 5 11 cbr 500 ------- 1 2.0 9.0 49 49
+ 0.403116 5 11 cbr 500 ------- 1 2.0 9.0 47 47
- 0.403116 5 11 cbr 500 ------- 1 2.0 9.0 47 47
r 0.404116 10 4 cbr 500 ------- 1 2.0 9.0 56 56
+ 0.404116 4 5 cbr 500 ------- 1 2.0 9.0 56 56
- 0.404116 4 5 cbr 500 ------- 1 2.0 9.0 56 56
+ 0.405 2 10 cbr 500 ------- 1 2.0 9.0 59 59
- 0.405 2 10 cbr 500 ------- 1 2.0 9.0 59 59
h 0.405 2 10 cbr 500 ------- 1 2.0 9.0 61 61
r 0.407232 11 9 cbr 500 ------- 1 2.0 9.0 45 45
r 0.408116 4 5 cbr 500 ------- 1 2.0 9.0 50 50
h 0.408116 5 11 cbr 500 ------- 1 2.0 9.0 50 50
+ 0.408116 5 11 cbr 500 ------- 1 2.0 9.0 48 48
- 0.408116 5 11 cbr 500 ------- 1 2.0 9.0 48 48
r 0.409116 10 4 cbr 500 ------- 1 2.0 9.0 57 57
+ 0.409116 4 5 cbr 500 ------- 1 2.0 9.0 57 57
- 0.409116 4 5 cbr 500 ------- 1 2.0 9.0 57 57
+ 0.41 2 10 cbr 500 ------- 1 2.0 9.0 60 60
- 0.41 2 10 cbr 500 ------- 1 2.0 9.0 60 60
h 0.41 2 10 cbr 500 ------- 1 2.0 9.0 62 62
r 0.412232 11 9 cbr 500 ------- 1 2.0 9.0 46 46
r 0.413116 4 5 cbr 500 ------- 1 2.0 9.0 51 51
h 0.413116 5 11 cbr 500 ------- 1 2.0 9.0 51 51
+ 0.413116 5 11 cbr 500 ------- 1 2.0 9.0 49 49
- 0.413116 5 11 cbr 500 ------- 1 2.0 9.0 49 49
r 0.414116 10 4 cbr 500 ------- 1 2.0 9.0 58 58
+ 0.414116 4 5 cbr 500 ------- 1 2.0 9.0 58 58
- 0.414116 4 5 cbr 500 ------- 1 2.0 9.0 58 58
+ 0.415 2 10 cbr 500 ------- 1 2.0 9.0 61 61
- 0.415 2 10 cbr 500 ------- 1 2.0 9.0 61 61
h 0.415 2 10 cbr 500 ------- 1 2.0 9.0 63 63
r 0.417232 11 9 cbr 500 ------- 1 2.0 9.0 47 47
r 0.418116 4 5 cbr 500 ------- 1 2.0 9.0 52 52
h 0.418116 5 11 cbr 500 ------- 1 2.0 9.0 52 52
+ 0.418116 5 11 cbr 500 ------- 1 2.0 9.0 50 50
- 0.418116 5 11 cbr 500 ------- 1 2.0 9.0 50 50
r 0.419116 10 4 cbr 500 ------- 1 2.0 9.0 59 59
+ 0.419116 4 5 cbr 500 ------- 1 2.0 9.0 59 59
- 0.419116 4 5 cbr 500 ------- 1 2.0 9.0 59 59
+ 0.42 2 10 cbr 500 ------- 1 2.0 9.0 62 62
- 0.42 2 10 cbr 500 ------- 1 2.0 9.0 62 62
h 0.42 2 10 cbr 500 ------- 1 2.0 9.0 64 64
r 0.422232 11 9 cbr 500 ------- 1 2.0 9.0 48 48
r 0.423116 4 5 cbr 500 ------- 1 2.0 9.0 53 53
h 0.423116 5 11 cbr 500 ------- 1 2.0 9.0 53 53
+ 0.423116 5 11 cbr 500 ------- 1 2.0 9.0 51 51
- 0.423116 5 11 cbr 500 ------- 1 2.0 9.0 51 51
r 0.424116 10 4 cbr 500 ------- 1 2.0 9.0 60 60
+ 0.424116 4 5 cbr 500 ------- 1 2.0 9.0 60 60
- 0.424116 4 5 cbr 500 ------- 1 2.0 9.0 60 60
+ 0.425 2 10 cbr 500 ------- 1 2.0 9.0 63 63
- 0.425 2 10 cbr 500 ------- 1 2.0 9.0 63 63
h 0.425 2 10 cbr 500 ------- 1 2.0 9.0 65 65
r 0.427232 11 9 cbr 500 ------- 1 2.0 9.0 49 49
+ 0.428116 5 11 cbr 500 ------- 1 2.0 9.0 52 52
- 0.428116 5 11 cbr 500 ------- 1 2.0 9.0 52 52
r 0.429116 10 4 cbr 500 ------- 1 2.0 9.0 61 61
+ 0.429116 4 5 cbr 500 ------- 1 2.0 9.0 61 61
- 0.429116 4 5 cbr 500 ------- 1 2.0 9.0 61 61
+ 0.43 2 10 cbr 500 ------- 1 2.0 9.0 64 64
- 0.43 2 10 cbr 500 ------- 1 2.0 9.0 64 64
h 0.43 2 10 cbr 500 ------- 1 2.0 9.0 66 66
r 0.432232 11 9 cbr 500 ------- 1 2.0 9.0 50 50
r 0.433116 4 5 cbr 500 ------- 1 2.0 9.0 55 55
h 0.433116 5 11 cbr 500 ------- 1 2.0 9.0 55 55
+ 0.433116 5 11 cbr 500 ------- 1 2.0 9.0 53 53
- 0.433116 5 11 cbr 500 ------- 1 2.0 9.0 53 53
r 0.434116 10 4 cbr 500 ------- 1 2.0 9.0 62 62
+ 0.434116 4 5 cbr 500 ------- 1 2.0 9.0 62 62
- 0.434116 4 5 cbr 500 ------- 1 2.0 9.0 62 62
+ 0.435 2 10 cbr 500 ------- 1 2.0 9.0 65 65
- 0.435 2 10 cbr 500 ------- 1 2.0 9.0 65 65
h 0.435 2 10 cbr 500 ------- 1 2.0 9.0 67 67
r 0.437232 11 9 cbr 500 ------- 1 2.0 9.0 51 51
r 0.438116 4 5 cbr 500 ------- 1 2.0 9.0 56 56
h 0.438116 5 11 cbr 500 ------- 1 2.0 9.0 56 56
r 0.439116 10 4 cbr 500 ------- 1 2.0 9.0 63 63
+ 0.439116 4 5 cbr 500 ------- 1 2.0 9.0 63 63
- 0.439116 4 5 cbr 500 ------- 1 2.0 9.0 63 63
+ 0.44 2 10 cbr 500 ------- 1 2.0 9.0 66 66
- 0.44 2 10 cbr 500 ------- 1 2.0 9.0 66 66
h 0.44 2 10 cbr 500 ------- 1 2.0 9.0 68 68
r 0.442232 11 9 cbr 500 ------- 1 2.0 9.0 52 52
r 0.443116 4 5 cbr 500 ------- 1 2.0 9.0 57 57
h 0.443116 5 11 cbr 500 ------- 1 2.0 9.0 57 57
+ 0.443116 5 11 cbr 500 ------- 1 2.0 9.0 55 55
- 0.443116 5 11 cbr 500 ------- 1 2.0 9.0 55 55
r 0.444116 10 4 cbr 500 ------- 1 2.0 9.0 64 64
d 0.444116 4 5 cbr 500 ------- 1 2.0 9.0 64 64
+ 0.445 2 10 cbr 500 ------- 1 2.0 9.0 67 67
- 0.445 2 10 cbr 500 ------- 1 2.0 9.0 67 67
h 0.445 2 10 cbr 500 ------- 1 2.0 9.0 69 69
r 0.447232 11 9 cbr 500 ------- 1 2.0 9.0 53 53
r 0.448116 4 5 cbr 500 ------- 1 2.0 9.0 58 58
h 0.448116 5 11 cbr 500 ------- 1 2.0 9.0 58 58
+ 0.448116 5 11 cbr 500 ------- 1 2.0 9.0 56 56
- 0.448116 5 11 cbr 500 ------- 1 2.0 9.0 56 56
r 0.449116 10 4 cbr 500 ------- 1 2.0 9.0 65 65
+ 0.449116 4 5 cbr 500 ------- 1 2.0 9.0 65 65