n -t 0 -s 0 -S DLABEL -l "TCP" -L ""
n -t 0 -s 2 -S DLABEL -l "UDP" -L ""
n -t 0 -s 7 -S DLABEL -l "SINK" -L ""
n -t 0 -s 9 -S DLABEL -l "NULL" -L ""
V -t * -v 1.0a5 -a 0
A -t * -n 1 -p 0 -o 0x7fffffff -c 30 -a 1
A -t * -h 1 -m 1073741823 -s 0
c -t * -i 1 -n blue
c -t * -i 2 -n red
n -t * -a 0 -s 0 -S UP -v circle -c black -i black
n -t * -a 1 -s 1 -S UP -v circle -c black -i black
n -t * -a 2 -s 2 -S UP -v circle -c black -i black
n -t * -a 3 -s 3 -S UP -v circle -c black -i black
n -t * -a 4 -s 4 -S UP -v circle -c black -i black
n -t * -a 5 -s 5 -S UP -v circle -c black -i black
n -t * -a 6 -s 6 -S UP -v circle -c black -i black
n -t * -a 7 -s 7 -S UP -v circle -c black -i black
n -t * -a 8 -s 8 -S UP -v circle -c black -i black
n -t * -a 9 -s 9 -S UP -v circle -c black -i black
l -t * -s 4 -d 5 -S UP -r 1000000 -D 0.029999999999999999 -c black -o right-down
X -t * -n 10 -r 1Mb -D 10ms -o left
L -t * -s 10 -d 0 -o up
L -t * -s 10 -d 1 -o down
L -t * -s 10 -d 2 -o up
L -t * -s 10 -d 3 -o down
L -t * -s 10 -d 4 -o up
X -t * -n 11 -r 1Mb -D 10ms -o left
L -t * -s 11 -d 5 -o up
L -t * -s 11 -d 6 -o down
L -t * -s 11 -d 7 -o up
L -t * -s 11 -d 8 -o down
L -t * -s 11 -d 9 -o up
h -t 0.1 -s 2 -d 10 -p cbr -e 500 -c 1 -i 0 -a 1 -x {2.0 9.0 0 ------- null}
h -t 0.105 -s 2 -d 10 -p cbr -e 500 -c 1 -i 1 -a 1 -x {2.0 9.0 1 ------- null}
+ -t 0.11 -s 2 -d 10 -p cbr -e 500 -c 1 -i 0 -a 1 -x {2.0 9.0 0 ------- null}
- -t 0.11 -s 2 -d 10 -p cbr -e 500 -c 1 -i 0 -a 1 -x {2.0 9.0 0 ------- null}
h -t 0.11 -s 2 -d 10 -p cbr -e 500 -c 1 -i 0 -a 1 -x {2.0 9.0 -1 ------- null}
h -t 0.11 -s 2 -d 10 -p cbr -e 500 -c 1 -i 2 -a 1 -x {2.0 9.0 2 ------- null}
+ -t 0.115 -s 2 -d 10 -p cbr -e 500 -c 1 -i 1 -a 1 -x {2.0 9.0 1 ------- null}
- -t 0.115 -s 2 -d 10 -p cbr -e 500 -c 1 -i 1 -a 1 -x {2.0 9.0 1 ------- null}
h -t 0.115 -s 2 -d 10 -p cbr -e 500 -c 1 -i 1 -a 1 -x {2.0 9.0 -1 ------- null}
h -t 0.115 -s 2 -d 10 -p cbr -e 500 -c 1 -i 3 -a 1 -x {2.0 9.0 3 ------- null}
+ -t 0.12 -s 2 -d 10 -p cbr -e 500 -c 1 -i 2 -a 1 -x {2.0 9.0 2 ------- null}
- -t 0.12 -s 2 -d 10 -p cbr -e 500 -c 1 -i 2 -a 1 -x {2.0 9.0 2 ------- null}
h -t 0.12 -s 2 -d 10 -p cbr -e 500 -c 1 -i 2 -a 1 -x {2.0 9.0 -1 ------- null}
h -t 0.12 -s 2 -d 10 -p cbr -e 500 -c 1 -i 4 -a 1 -x {2.0 9.0 4 ------- null}
r -t 0.124116 -s 10 -d 4 -p cbr -e 500 -c 1 -i 0 -a 1 -x {2.0 9.0 0 ------- null}
d -t 0.124116 -s 4 -d 5 -p cbr -e 500 -c 1 -i 0 -a 1 -x {2.0 9.0 0 ------- null}
+ -t 0.125 -s 2 -d 10 -p cbr -e 500 -c 1 -i 3 -a 1 -x {2.0 9.0 3 ------- null}
- -t 0.125 -s 2 -d 10 -p cbr -e 500 -c 1 -i 3 -a 1 -x {2.0 9.0 3 ------- null}
h -t 0.125 -s 2 -d 10 -p cbr -e 500 -c 1 -i 3 -a 1 -x {2.0 9.0 -1 ------- null}
h -t 0.125 -s 2 -d 10 -p cbr -e 500 -c 1 -i 5 -a 1 -x {2.0 9.0 5 ------- null}
r -t 0.129116 -s 10 -d 4 -p cbr -e 500 -c 1 -i 1 -a 1 -x {2.0 9.0 1 ------- null}
d -t 0.129116 -s 4 -d 5 -p cbr -e 500 -c 1 -i 1 -a 1 -x {2.0 9.0 1 ------- null}
+ -t 0.13 -s 2 -d 10 -p cbr -e 500 -c 1 -i 4 -a 1 -x {2.0 9.0 4 ------- null}
- -t 0.13 -s 2 -d 10 -p cbr -e 500 -c 1 -i 4 -a 1 -x {2.0 9.0 4 ------- null}
h -t 0.13 -s 2 -d 10 -p cbr -e 500 -c 1 -i 4 -a 1 -x {2.0 9.0 -1 ------- null}
h -t 0.13 -s 2 -d 10 -p cbr -e 500 -c 1 -i 6 -a 1 -x {2.0 9.0 6 ------- null}
r -t 0.134116 -s 10 -d 4 -p cbr -e 500 -c 1 -i 2 -a 1 -x {2.0 9.0 2 ------- null}
+ -t 0.134116 -s 4 -d 5 -p cbr -e 500 -c 1 -i 2 -a 1 -x {2.0 9.0 2 ------- null}
- -t 0.134116 -s 4 -d 5 -p cbr -e 500 -c 1 -i 2 -a 1 -x {2.0 9.0 2 ------- null}
h -t 0.134116 -s 4 -d 5 -p cbr -e 500 -c 1 -i 2 -a 1 -x {2.0 9.0 -1 ------- null}
+ -t 0.135 -s 2 -d 10 -p cbr -e 500 -c 1 -i 5 -a 1 -x {2.0 9.0 5 ------- null}
- -t 0.135 -s 2 -d 10 -p cbr -e 500 -c 1 -i 5 -a 1 -x {2.0 9.0 5 ------- null}
h -t 0.135 -s 2 -d 10 -p cbr -e 500 -c 1 -i 5 -a 1 -x {2.0 9.0 -1 ------- null}
h -t 0.135 -s 2 -d 10 -p cbr -e 500 -c 1 -i 7 -a 1 -x {2.0 9.0 7 ------- null}
r -t 0.139116 -s 10 -d 4 -p cbr -e 500 -c 1 -i 3 -a 1 -x {2.0 9.0 3 ------- null}
+ -t 0.139116 -s 4 -d 5 -p cbr -e 500 -c 1 -i 3 -a 1 -x {2.0 9.0 3 ------- null}
- -t 0.139116 -s 4 -d 5 -p cbr -e 500 -c 1 -i 3 -a 1 -x {2.0 9.0 3 ------- null}
h -t 0.139116 -s 4 -d 5 -p cbr -e 500 -c 1 -i 3 -a 1 -x {2.0 9.0 -1 ------- null}
+ -t 0.14 -s 2 -d 10 -p cbr -e 500 -c 1 -i 6 -a 1 -x {2.0 9.0 6 ------- null}
- -t 0.14 -s 2 -d 10 -p cbr -e 500 -c 1 -i 6 -a 1 -x {2.0 9.0 6 ------- null}
h -t 0.14 -s 2 -d 10 -p cbr -e 500 -c 1 -i 6 -a 1 -x {2.0 9.0 -1 ------- null}
h -t 0.14 -s 2 -d 10 -p cbr -e 500 -c 1 -i 8 -a 1 -x {2.0 9.0 8 ------- null}
r -t 0.144116 -s 10 -d 4 -p cbr -e 500 -c 1 -i 4 -a 1 -x {2.0 9.0 4 ------- null}
+ -t 0.144116 -s 4 -d 5 -p cbr -e 500 -c 1 -i 4 -a 1 -x {2.0 9.0 4 ------- null}
- -t 0.144116 -s 4 -d 5 -p cbr -e 500 -c 1 -i 4 -a 1 -x {2.0 9.0 4 ------- null}
h -t 0.144116 -s 4 -d 5 -p cbr -e 500 -c 1 -i 4 -a 1 -x {2.0 9.0 -1 ------- null}
+ -t 0.145 -s 2 -d 10 -p cbr -e 500 -c 1 -i 7 -a 1 -x {2.0 9.0 7 ------- null}
- -t 0.145 -s 2 -d 10 -p cbr -e 500 -c 1 -i 7 -a 1 -x {2.0 9.0 7 ------- null}
h -t 0.145 -s 2 -d 10 -p cbr -e 500 -c 1 -i 7 -a 1 -x {2.0 9.0 -1 ------- null}
h -t 0.145 -s 2 -d 10 -p cbr -e 500 -c 1 -i 9 -a 1 -x {2.0 9.0 9 ------- null}
r -t 0.149116 -s 10 -d 4 -p cbr -e 500 -c 1 -i 5 -a 1 -x {2.0 9.0 5 ------- null}
+ -t 0.149116 -s 4 -d 5 -p cbr -e 500 -c 1 -i 5 -a 1 -x {2.0 9.0 5 ------- null}
- -t 0.149116 -s 4 -d 5 -p cbr -e 500 -c 1 -i 5 -a 1 -x {2.0 9.0 5 ------- null}
h -t 0.149116 -s 4 -d 5 -p cbr -e 500 -c 1 -i 5 -a 1 -x {2.0 9.0 -1 ------- null}
+ -t 0.15 -s 2 -d 10 -p cbr -e 500 -c 1 -i 8 -a 1 -x {2.0 9.0 8 ------- null}
- -t 0.15 -s 2 -d 10 -p cbr -e 500 -c 1 -i 8 -a 1 -x {2.0 9.0 8 ------- null}
h -t 0.15 -s 2 -d 10 -p cbr -e 500 -c 1 -i 8 -a 1 -x {2.0 9.0 -1 ------- null}
h -t 0.15 -s 2 -d 10 -p cbr -e 500 -c 1 -i 10 -a 1 -x {2.0 9.0 10 ------- null}
r -t 0.154116 -s 10 -d 4 -p cbr -e 500 -c 1 -i 6 -a 1 -x {2.0 9.0 6 ------- null}
+ -t 0.154116 -s 4 -d 5 -p cbr -e 500 -c 1 -i 6 -a 1 -x {2.0 9.0 6 ------- null}
- -t 0.154116 -s 4 -d 5 -p cbr -e 500 -c 1 -i 6 -a 1 -x {2.0 9.0 6 ------- null}
h -t 0.154116 -s 4 -d 5 -p cbr -e 500 -c 1 -i 6 -a 1 -x {2.0 9.0 -1 ------- null}
+ -t 0.155 -s 2 -d 10 -p cbr -e 500 -c 1 -i 9 -a 1 -x {2.0 9.0 9 ------- null}
- -t 0.155 -s 2 -d 10 -p cbr -e 500 -c 1 -i 9 -a 1 -x {2.0 9.0 9 ------- null}
h -t 0.155 -s 2 -d 10 -p cbr -e 500 -c 1 -i 9 -a 1 -x {2.0 9.0 -1 ------- null}
h -t 0.155 -s 2 -d 10 -p cbr -e 500 -c 1 -i 11 -a 1 -x {2.0 9.0 11 ------- null}
r -t 0.159116 -s 10 -d 4 -p cbr -e 500 -c 1 -i 7 -a 1 -x {2.0 9.0 7 ------- null}
+ -t 0.159116 -s 4 -d 5 -p cbr -e 500 -c 1 -i 7 -a 1 -x {2.0 9.0 7 ------- null}
- -t 0.159116 -s 4 -d 5 -p cbr -e 500 -c 1 -i 7 -a 1 -x {2.0 9.0 7 ------- null}
h -t 0.159116 -s 4 -d 5 -p cbr -e 500 -c 1 -i 7 -a 1 -x {2.0 9.0 -1 ------- null}
+ -t 0.16 -s 2 -d 10 -p cbr -e 500 -c 1 -i 10 -a 1 -x {2.0 9.0 10 ------- null}
- -t 0.16 -s 2 -d 10 -p cbr -e 500 -c 1 -i 10 -a 1 -x {2.0 9.0 10 ------- null}
h -t 0.16 -s 2 -d 10 -p cbr -e 500 -c 1 -i 10 -a 1 -x {2.0 9.0 -1 ------- null}
h -t 0.16 -s 2 -d 10 -p cbr -e 500 -c 1 -i 12 -a 1 -x {2.0 9.0 12 ------- null}
r -t 0.164116 -s 10 -d 4 -p cbr -e 500 -c 1 -i 8 -a 1 -x {2.0 9.0 8 ------- null}
+ -t 0.164116 -s 4 -d 5 -p cbr -e 500 -c 1 -i 8 -a 1 -x {2.0 9.0 8 ------- null}
- -t 0.164116 -s 4 -d 5 -p cbr -e 500 -c 1 -i 8 -a 1 -x {2.0 9.0 8 ------- null}
h -t 0.164116 -s 4 -d 5 -p cbr -e 500 -c 1 -i 8 -a 1 -x {2.0 9.0 -1 ------- null}
+ -t 0.165 -s 2 -d 10 -p cbr -e 500 -c 1 -i 11 -a 1 -x {2.0 9.0 11 ------- null}
- -t 0.165 -s 2 -d 10 -p cbr -e 500 -c 1 -i 11 -a 1 -x {2.0 9.0 11 ------- null}
h -t 0.165 -s 2 -d 10 -p cbr -e 500 -c 1 -i 11 -a 1 -x {2.0 9.0 -1 ------- null}
h -t 0.165 -s 2 -d 10 -p cbr -e 500 -c 1 -i 13 -a 1 -x {2.0 9.0 13 ------- null}
r -t 0.168116 -s 4 -d 5 -p cbr -e 500 -c 1 -i 2 -a 1 -x {2.0 9.0 2 ------- null}
h -t 0.168116 -s 5 -d 11 -p cbr -e 500 -c 1 -i 2 -a 1 -x {2.0 9.0 2 ------- null}
r -t 0.169116 -s 10 -d 4 -p cbr -e 500 -c 1 -i 9 -a 1 -x {2.0 9.0 9 ------- null}
+ -t 0.169116 -s 4 -d 5 -p cbr -e 500 -c 1 -i 9 -a 1 -x {2.0 9.0 9 ------- null}
- -t 0.169116 -s 4 -d 5 -p cbr -e 500 -c 1 -i 9 -a 1 -x {2.0 9.0 9 ------- null}
h -t 0.169116 -s 4 -d 5 -p cbr -e 500 -c 1 -i 9 -a 1 -x {2.0 9.0 -1 ------- null}
+ -t 0.17 -s 2 -d 10 -p cbr -e 500 -c 1 -i 12 -a 1 -x {2.0 9.0 12 ------- null}
- -t 0.17 -s 2 -d 10 -p cbr -e 500 -c 1 -i 12 -a 1 -x {2.0 9.0 12 ------- null}
h -t 0.17 -s 2 -d 10 -p cbr -e 500 -c 1 -i 12 -a 1 -x {2.0 9.0 -1 ------- null}
h -t 0.17 -s 2 -d 10 -p cbr -e 500 -c 1 -i 14 -a 1 -x {2.0 9.0 14 ------- null}
r -t 0.173116 -s 4 -d 5 -p cbr -e 500 -c 1 -i 3 -a 1 -x {2.0 9.0 3 ------- null}
h -t 0.173116 -s 5 -d 11 -p cbr -e 500 -c 1 -i 3 -a 1 -x {2.0 9.0 3 ------- null}
r -t 0.174116 -s 10 -d 4 -p cbr -e 500 -c 1 -i 10 -a 1 -x {2.0 9.0 10 ------- null}
+ -t 0.174116 -s 4 -d 5 -p cbr -e 500 -c 1 -i 10 -a 1 -x {2.0 9.0 10 ------- null}
- -t 0.174116 -s 4 -d 5 -p cbr -e 500 -c 1 -i 10 -a 1 -x {2.0 9.0 10 ------- null}
h -t 0.174116 -s 4 -d 5 -p cbr -e 500 -c 1 -i 10 -a 1 -x {2.0 9.0 -1 ------- null}
+ -t 0.175 -s 2 -d 10 -p cbr -e 500 -c 1 -i 13 -a 1 -x {2.0 9.0 13 ------- null}
- -t 0.175 -s 2 -d 10 -p cbr -e 500 -c 1 -i 13 -a 1 -x {2.0 9.0 13 ------- null}
h -t 0.175 -s 2 -d 10 -p cbr -e 500 -c 1 -i 13 -a 1 -x {2.0 9.0 -1 ------- null}
h -t 0.175 -s 2 -d 10 -p cbr -e 500 -c 1 -i 15 -a 1 -x {2.0 9.0 15 ------- null}
+ -t 0.178116 -s 5 -d 11 -p cbr -e 500 -c 1 -i 2 -a 1 -x {2.0 9.0 2 ------- null}
- -t 0.178116 -s 5 -d 11 -p cbr -e 500 -c 1 -i 2 -a 1 -x {2.0 9.0 2 ------- null}
h -t 0.178116 -s 5 -d 11 -p cbr -e 500 -c 1 -i 2 -a 1 -x {2.0 9.0 -1 ------- null}
r -t 0.178116 -s 4 -d 5 -p cbr -e 500 -c 1 -i 4 -a 1 -x {2.0 9.0 4 ------- null}
h -t 0.178116 -s 5 -d 11 -p cbr -e 500 -c 1 -i 4 -a 1 -x {2.0 9.0 4 ------- null}
r -t 0.179116 -s 10 -d 4 -p cbr -e 500 -c 1 -i 11 -a 1 -x {2.0 9.0 11 ------- null}
d -t 0.179116 -s 4 -d 5 -p cbr -e 500 -c 1 -i 11 -a 1 -x {2.0 9.0 11 ------- null}
+ -t 0.18 -s 2 -d 10 -p cbr -e 500 -c 1 -i 14 -a 1 -x {2.0 9.0 14 ------- null}
- -t 0.18 -s 2 -d 10 -p cbr -e 500 -c 1 -i 14 -a 1 -x {2.0 9.0 14 ------- null}
h -t 0.18 -s 2 -d 10 -p cbr -e 500 -c 1 -i 14 -a 1 -x {2.0 9.0 -1 ------- null}
h -t 0.18 -s 2 -d 10 -p cbr -e 500 -c 1 -i 16 -a 1 -x {2.0 9.0 16 ------- null}
r -t 0.183116 -s 4 -d 5 -p cbr -e 500 -c 1 -i 5 -a 1 -x {2.0 9.0 5 ------- null}
h -t 0.183116 -s 5 -d 11 -p cbr -e 500 -c 1 -i 5 -a 1 -x {2.0 9.0 5 ------- null}
+ -t 0.183116 -s 5 -d 11 -p cbr -e 500 -c 1 -i 3 -a 1 -x {2.0 9.0 3 ------- null}
- -t 0.183116 -s 5 -d 11 -p cbr -e 500 -c 1 -i 3 -a 1 -x {2.0 9.0 3 ------- null}
h -t 0.183116 -s 5 -d 11 -p cbr -e 500 -c 1 -i 3 -a 1 -x {2.0 9.0 -1 ------- null}
r -t 0.184116 -s 10 -d 4 -p cbr -e 500 -c 1 -i 12 -a 1 -x {2.0 9.0 12 ------- null}
+ -t 0.184116 -s 4 -d 5 -p cbr -e 500 -c 1 -i 12 -a 1 -x {2.0 9.0 12 ------- null}
- -t 0.184116 -s 4 -d 5 -p cbr -e 500 -c 1 -i 12 -a 1 -x {2.0 9.0 12 ------- null}
h -t 0.184116 -s 4 -d 5 -p cbr -e 500 -c 1 -i 12 -a 1 -x {2.0 9.0 -1 ------- null}
+ -t 0.185 -s 2 -d 10 -p cbr -e 500 -c 1 -i 15 -a 1 -x {2.0 9.0 15 ------- null}
- -t 0.185 -s 2 -d 10 -p cbr -e 500 -c 1 -i 15 -a 1 -x {2.0 9.0 15 ------- null}
h -t 0.185 -s 2 -d 10 -p cbr -e 500 -c 1 -i 15 -a 1 -x {2.0 9.0 -1 ------- null}
h -t 0.185 -s 2 -d 10 -p cbr -e 500 -c 1 -i 17 -a 1 -x {2.0 9.0 17 ------- null}
r -t 0.188116 -s 4 -d 5 -p cbr -e 500 -c 1 -i 6 -a 1 -x {2.0 9.0 6 ------- null}
h -t 0.188116 -s 5 -d 11 -p cbr -e 500 -c 1 -i 6 -a 1 -x {2.0 9.0 6 ------- null}
+ -t 0.188116 -s 5 -d 11 -p cbr -e 500 -c 1 -i 4 -a 1 -x {2.0 9.0 4 ------- null}
- -t 0.188116 -s 5 -d 11 -p cbr -e 500 -c 1 -i 4 -a 1 -x {2.0 9.0 4 ------- null}
h -t 0.188116 -s 5 -d 11 -p cbr -e 500 -c 1 -i 4 -a 1 -x {2.0 9.0 -1 ------- null}
r -t 0.189116 -s 10 -d 4 -p cbr -e 500 -c 1 -i 13 -a 1 -x {2.0 9.0 13 ------- null}
+ -t 0.189116 -s 4 -d 5 -p cbr -e 500 -c 1 -i 13 -a 1 -x {2.0 9.0 13 ------- null}
- -t 0.189116 -s 4 -d 5 -p cbr -e 500 -c 1 -i 13 -a 1 -x {2.0 9.0 13 ------- null}
h -t 0.189116 -s 4 -d 5 -p cbr -e 500 -c 1 -i 13 -a 1 -x {2.0 9.0 -1 ------- null}
+ -t 0.19 -s 2 -d 10 -p cbr -e 500 -c 1 -i 16 -a 1 -x {2.0 9.0 16 ------- null}
- -t 0.19 -s 2 -d 10 -p cbr -e 500 -c 1 -i 16 -a 1 -x {2.0 9.0 16 ------- null}
h -t 0.19 -s 2 -d 10 -p cbr -e 500 -c 1 -i 16 -a 1 -x {2.0 9.0 -1 ------- null}
h -t 0.19 -s 2 -d 10 -p cbr -e 500 -c 1 -i 18 -a 1 -x {2.0 9.0 18 ------- null}
r -t 0.192232 -s 11 -d 9 -p cbr -e 500 -c 1 -i 2 -a 1 -x {2.0 9.0 2 ------- null}
r -t 0.193116 -s 4 -d 5 -p cbr -e 500 -c 1 -i 7 -a 1 -x {2.0 9.0 7 ------- null}
h -t 0.193116 -s 5 -d 11 -p cbr -e 500 -c 1 -i 7 -a 1 -x {2.0 9.0 7 ------- null}
+ -t 0.193116 -s 5 -d 11 -p cbr -e 500 -c 1 -i 5 -a 1 -x {2.0 9.0 5 ------- null}
- -t 0.193116 -s 5 -d 11 -p cbr -e 500 -c 1 -i 5 -a 1 -x {2.0 9.0 5 ------- null}
h -t 0.193116 -s 5 -d 11 -p cbr -e 500 -c 1 -i 5 -a 1 -x {2.0 9.0 -1 ------- null}
r -t 0.194116 -s 10 -d 4 -p cbr -e 500 -c 1 -i 14 -a 1 -x {2.0 9.0 14 ------- null}
+ -t 0.194116 -s 4 -d 5 -p cbr -e 500 -c 1 -i 14 -a 1 -x {2.0 9.0 14 ------- null}
- -t 0.194116 -s 4 -d 5 -p cbr -e 500 -c 1 -i 14 -a 1 -x {2.0 9.0 14 ------- null}
h -t 0.194116 -s 4 -d 5 -p cbr -e 500 -c 1 -i 14 -a 1 -x {2.0 9.0 -1 ------- null}
+ -t 0.195 -s 2 -d 10 -p cbr -e 500 -c 1 -i 17 -a 1 -x {2.0 9.0 17 ------- null}
- -t 0.195 -s 2 -d 10 -p cbr -e 500 -c 1 -i 17 -a 1 -x {2.0 9.0 17 ------- null}
h -t 0.195 -s 2 -d 10 -p cbr -e 500 -c 1 -i 17 -a 1 -x {2.0 9.0 -1 ------- null}
h -t 0.195 -s 2 -d 10 -p cbr -e 500 -c 1 -i 19 -a 1 -x {2.0 9.0 19 ------- null}
r -t 0.197232 -s 11 -d 9 -p cbr -e 500 -c 1 -i 3 -a 1 -x {2.0 9.0 3 ------- null}
r -t 0.198116 -s 4 -d 5 -p cbr -e 500 -c 1 -i 8 -a 1 -x {2.0 9.0 8 ------- null}
h -t 0.198116 -s 5 -d 11 -p cbr -e 500 -c 1 -i 8 -a 1 -x {2.0 9.0 8 ------- null}
+ -t 0.198116 -s 5 -d 11 -p cbr -e 500 -c 1 -i 6 -a 1 -x {2.0 9.0 6 ------- null}
- -t 0.198116 -s 5 -d 11 -p cbr -e 500 -c 1 -i 6 -a 1 -x {2.0 9.0 6 ------- null}
h -t 0.198116 -s 5 -d 11 -p cbr -e 500 -c 1 -i 6 -a 1 -x {2.0 9.0 -1 ------- null}
r -t 0.199116 -s 10 -d 4 -p cbr -e 500 -c 1 -i 15 -a 1 -x {2.0 9.0 15 ------- null}
+ -t 0.199116 -s 4 -d 5 -p cbr -e 500 -c 1 -i 15 -a 1 -x {2.0 9.0 15 ------- null}
- -t 0.199116 -s 4 -d 5 -p cbr -e 500 -c 1 -i 15 -a 1 -x {2.0 9.0 15 ------- null}
h -t 0.199116 -s 4 -d 5 -p cbr -e 500 -c 1 -i 15 -a 1 -x {2.0 9.0 -1 ------- null}
+ -t 0.2 -s 2 -d 10 -p cbr -e 500 -c 1 -i 18 -a 1 -x {2.0 9.0 18 ------- null}
- -t 0.2 -s 2 -d 10 -p cbr -e 500 -c 1 -i 18 -a 1 -x {2.0 9.0 18 ------- null}
h -t 0.2 -s 2 -d 10 -p cbr -e 500 -c 1 -i 18 -a 1 -x {2.0 9.0 -1 ------- null}
h -t 0.2 -s 2 -d 10 -p cbr -e 500 -c 1 -i 20 -a 1 -x {2.0 9.0 20 ------- null}
r -t 0.202232 -s 11 -d 9 -p cbr -e 500 -c 1 -i 4 -a 1 -x {2.0 9.0 4 ------- null}
r -t 0.203116 -s 4 -d 5 -p cbr -e 500 -c 1 -i 9 -a 1 -x {2.0 9.0 9 ------- null}
h -t 0.203116 -s 5 -d 11 -p cbr -e 500 -c 1 -i 9 -a 1 -x {2.0 9.0 9 ------- null}
+ -t 0.203116 -s 5 -d 11 -p cbr -e 500 -c 1 -i 7 -a 1 -x {2.0 9.0 7 ------- null}
- -t 0.203116 -s 5 -d 11 -p cbr -e 500 -c 1 -i 7 -a 1 -x {2.0 9.0 7 ------- null}
h -t 0.203116 -s 5 -d 11 -p cbr -e 500 -c 1 -i 7 -a 1 -x {2.0 9.0 -1 ------- null}
r -t 0.204116 -s 10 -d 4 -p cbr -e 500 -c 1 -i 16 -a 1 -x {2.0 9.0 16 ------- null}
+ -t 0.204116 -s 4 -d 5 -p cbr -e 500 -c 1 -i 16 -a 1 -x {2.0 9.0 16 ------- null}
- -t 0.204116 -s 4 -d 5 -p cbr -e 500 -c 1 -i 16 -a 1 -x {2.0 9.0 16 ------- null}
h -t 0.204116 -s 4 -d 5 -p cbr -e 500 -c 1 -i 16 -a 1 -x {2.0 9.0 -1 ------- null}
+ -t 0.205 -s 2 -d 10 -p cbr -e 500 -c 1 -i 19 -a 1 -x {2.0 9.0 19 ------- null}
- -t 0.205 -s 2 -d 10 -p cbr -e 500 -c 1 -i 19 -a 1 -x {2.0 9.0 19 ------- null}
h -t 0.205 -s 2 -d 10 -p cbr -e 500 -c 1 -i 19 -a 1 -x {2.0 9.0 -1 ------- null}
h -t 0.205 -s 2 -d 10 -p cbr -e 500 -c 1 -i 21 -a 1 -x {2.0 9.0 21 ------- null}
r -t 0.207232 -s 11 -d 9 -p cbr -e 500 -c 1 -i 5 -a 1 -x {2.0 9.0 5 ------- null}
r -t 0.208116 -s 4 -d 5 -p cbr -e 500 -c 1 -i 10 -a 1 -x {2.0 9.0 10 ------- null}
h -t 0.208116 -s 5 -d 11 -p cbr -e 500 -c 1 -i 10 -a 1 -x {2.0 9.0 10 ------- null}
+ -t 0.208116 -s 5 -d 11 -p cbr -e 500 -c 1 -i 8 -a 1 -x {2.0 9.0 8 ------- null}
- -t 0.208116 -s 5 -d 11 -p cbr -e 500 -c 1 -i 8 -a 1 -x {2.0 9.0 8 ------- null}
h -t 0.208116 -s 5 -d 11 -p cbr -e 500 -c 1 -i 8 -a 1 -x {2.0 9.0 -1 ------- null}
r -t 0.209116 -s 10 -d 4 -p cbr -e 500 -c 1 -i 17 -a 1 -x {2.0 9.0 17 ------- null}
d -t 0.209116 -s 4 -d 5 -p cbr -e 500 -c 1 -i 17 -a 1 -x {2.0 9.0 17 ------- null}
+ -t 0.21 -s 2 -d 10 -p cbr -e 500 -c 1 -i 20 -a 1 -x {2.0 9.0 20 ------- null}
- -t 0.21 -s 2 -d 10 -p cbr -e 500 -c 1 -i 20 -a 1 -x {2.0 9.0 20 ------- null}
h -t 0.21 -s 2 -d 10 -p cbr -e 500 -c 1 -i 20 -a 1 -x {2.0 9.0 -1 ------- null}
h -t 0.21 -s 2 -d 10 -p cbr -e 500 -c 1 -i 22 -a 1 -x {2.0 9.0 22 ------- null}
r -t 0.212232 -s 11 -d 9 -p cbr -e 500 -c 1 -i 6 -a 1 -x {2.0 9.0 6 ------- null}
+ -t 0.213116 -s 5 -d 11 -p cbr -e 500 -c 1 -i 9 -a 1 -x {2.0 9.0 9 ------- null}
- -t 0.213116 -s 5 -d 11 -p cbr -e 500 -c 1 -i 9 -a 1 -x {2.0 9.0 9 ------- null}
h -t 0.213116 -s 5 -d 11 -p cbr -e 500 -c 1 -i 9 -a 1 -x {2.0 9.0 -1 ------- null}
r -t 0.214116 -s 10 -d 4 -p cbr -e 500 -c 1 -i 18 -a 1 -x {2.0 9.0 18 ------- null}
+ -t 0.214116 -s 4 -d 5 -p cbr -e 500 -c 1 -i 18 -a 1 -x {2.0 9.0 18 ------- null}
- -t 0.214116 -s 4 -d 5 -p cbr -e 500 -c 1 -i 18 -a 1 -x {2.0 9.0 18 ------- null}
h -t 0.214116 -s 4 -d 5 -p cbr -e 500 -c 1 -i 18 -a 1 -x {2.0 9.0 -1 ------- null}
+ -t 0.215 -s 2 -d 10 -p cbr -e 500 -c 1 -i 21 -a 1 -x {2.0 9.0 21 ------- null}
- -t 0.215 -s 2 -d 10 -p cbr -e 500 -c 1 -i 21 -a 1 -x {2.0 9.0 21 ------- null}
h -t 0.215 -s 2 -d 10 -p cbr -e 500 -c 1 -i 21 -a 1 -x {2.0 9.0 -1 ------- null}
h -t 0.215 -s 2 -d 10 -p cbr -e 500 -c 1 -i 23 -a 1 -x {2.0 9.0 23 ------- null}
r -t 0.217232 -s 11 -d 9 -p cbr -e 500 -c 1 -i 7 -a 1 -x {2.0 9.0 7 ------- null}
r -t 0.218116 -s 4 -d 5 -p cbr -e 500 -c 1 -i 12 -a 1 -x {2.0 9.0 12 ------- null}
h -t 0.218116 -s 5 -d 11 -p cbr -e 500 -c 1 -i 12 -a 1 -x {2.0 9.0 12 ------- null}
+ -t 0.218116 -s 5 -d 11 -p cbr -e 500 -c 1 -i 10 -a 1 -x {2.0 9.0 10 ------- null}
- -t 0.218116 -s 5 -d 11 -p cbr -e 500 -c 1 -i 10 -a 1 -x {2.0 9.0 10 ------- null}
h -t 0.218116 -s 5 -d 11 -p cbr -e 500 -c 1 -i 10 -a 1 -x {2.0 9.0 -1 ------- null}
r -t 0.219116 -s 10 -d 4 -p cbr -e 500 -c 1 -i 19 -a 1 -x {2.0 9.0 19 ------- null}
+ -t 0.219116 -s 4 -d 5 -p cbr -e 500 -c 1 -i 19 -a 1 -x {2.0 9.0 19 ------- null}
- -t 0.219116 -s 4 -d 5 -p cbr -e 500 -c 1 -i 19 -a 1 -x {2.0 9.0 19 ------- null}
h -t 0.219116 -s 4 -d 5 -p cbr -e 500 -c 1 -i 19 -a 1 -x {2.0 9.0 -1 ------- null}
+ -t 0.22 -s 2 -d 10 -p cbr -e 500 -c 1 -i 22 -a 1 -x {2.0 9.0 22 ------- null}
- -t 0.22 -s 2 -d 10 -p cbr -e 500 -c 1 -i 22 -a 1 -x {2.0 9.0 22 ------- null}
h -t 0.22 -s 2 -d 10 -p cbr -e 500 -c 1 -i 22 -a 1 -x {2.0 9.0 -1 ------- null}
h -t 0.22 -s 2 -d 10 -p cbr -e 500 -c 1 -i 24 -a 1 -x {2.0 9.0 24 ------- null}
r -t 0.222232 -s 11 -d 9 -p cbr -e 500 -c 1 -i 8 -a 1 -x {2.0 9.0 8 ------- null}
r -t 0.223116 -s 4 -d 5 -p cbr -e 500 -c 1 -i 13 -a 1 -x {2.0 9.0 13 ------- null}
h -t 0.223116 -s 5 -d 11 -p cbr -e 500 -c 1 -i 13 -a 1 -x {2.0 9.0 13 ------- null}
r -t 0.224116 -s 10 -d 4 -p cbr -e 500 -c 1 -i 20 -a 1 -x {2.0 9.0 20 ------- null}
+ -t 0.224116 -s 4 -d 5 -p cbr -e 500 -c 1 -i 20 -a 1 -x {2.0 9.0 20 ------- null}
- -t 0.224116 -s 4 -d 5 -p cbr -e 500 -c 1 -i 20 -a 1 -x {2.0 9.0 20 ------- null}
h -t 0.224116 -s 4 -d 5 -p cbr -e 500 -c 1 -i 20 -a 1 -x {2.0 9.0 -1 ------- null}
+ -t 0.225 -s 2 -d 10 -p cbr -e 500 -c 1 -i 23 -a 1 -x {2.0 9.0 23 ------- null}
- -t 0.225 -s 2 -d 10 -p cbr -e 500 -c 1 -i 23 -a 1 -x {2.0 9.0 23 ------- null}
h -t 0.225 -s 2 -d 10 -p cbr -e 500 -c 1 -i 23 -a 1 -x {2.0 9.0 -1 ------- null}
h -t 0.225 -s 2 -d 10 -p cbr -e 500 -c 1 -i 25 -a 1 -x {2.0 9.0 25 ------- null}
r -t 0.227232 -s 11 -d 9 -p cbr -e 500 -c 1 -i 9 -a 1 -x {2.0 9.0 9 ------- null}
r -t 0.228116 -s 4 -d 5 -p cbr -e 500 -c 1 -i 14 -a 1 -x {2.0 9.0 14 ------- null}
h -t 0.228116 -s 5 -d 11 -p cbr -e 500 -c 1 -i 14 -a 1 -x {2.0 9.0 14 ------- null}
+ -t 0.228116 -s 5 -d 11 -p cbr -e 500 -c 1 -i 12 -a 1 -x {2.0 9.0 12 ------- null}
- -t 0.228116 -s 5 -d 11 -p cbr -e 500 -c 1 -i 12 -a 1 -x {2.0 9.0 12 ------- null}
h -t 0.228116 -s 5 -d 11 -p cbr -e 500 -c 1 -i 12 -a 1 -x {2.0 9.0 -1 ------- null}
r -t 0.229116 -s 10 -d 4 -p cbr -e 500 -c 1 -i 21 -a 1 -x {2.0 9.0 21 ------- null}
+ -t 0.229116 -s 4 -d 5 -p cbr -e 500 -c 1 -i 21 -a 1 -x {2.0 9.0 21 ------- null}
- -t 0.229116 -s 4 -d 5 -p cbr -e 500 -c 1 -i 21 -a 1 -x {2.0 9.0 21 ------- null}
h -t 0.229116 -s 4 -d 5 -p cbr -e 500 -c 1 -i 21 -a 1 -x {2.0 9.0 -1 ------- null}
+ -t 0.23 -s 2 -d 10 -p cbr -e 500 -c 1 -i 24 -a 1 -x {2.0 9.0 24 ------- null}
- -t 0.23 -s 2 -d 10 -p cbr -e 500 -c 1 -i 24 -a 1 -x {2.0 9.0 24 ------- null}
h -t 0.23 -s 2 -d 10 -p cbr -e 500 -c 1 -i 24 -a 1 -x {2.0 9.0 -1 ------- null}
h -t 0.23 -s 2 -d 10 -p cbr -e 500 -c 1 -i 26 -a 1 -x {2.0 9.0 26 ------- null}
r -t 0.232232 -s 11 -d 9 -p cbr -e 500 -c 1 -i 10 -a 1 -x {2.0 9.0 10 ------- null}
r -t 0.233116 -s 4 -d 5 -p cbr -e 500 -c 1 -i 15 -a 1 -x {2.0 9.0 15 ------- null}
h -t 0.233116 -s 5 -d 11 -p cbr -e 500 -c 1 -i 15 -a 1 -x {2.0 9.0 15 ------- null}
+ -t 0.233116 -s 5 -d 11 -p cbr -e 500 -c 1 -i 13 -a 1 -x {2.0 9.0 13 ------- null}
- -t 0.233116 -s 5 -d 11 -p cbr -e 500 -c 1 -i 13 -a 1 -x {2.0 9.0 13 ------- null}
h -t 0.233116 -s 5 -d 11 -p cbr -e 500 -c 1 -i 13 -a 1 -x {2.0 9.0 -1 ------- null}
r -t 0.234116 -s 10 -d 4 -p cbr -e 500 -c 1 -i 22 -a 1 -x {2.0 9.0 22 ------- null}
+ -t 0.234116 -s 4 -d 5 -p cbr -e 500 -c 1 -i 22 -a 1 -x {2.0 9.0 22 ------- null}
- -t 0.234116 -s 4 -d 5 -p cbr -e 500 -c 1 -i 22 -a 1 -x {2.0 9.0 22 ------- null}
h -t 0.234116 -s 4 -d 5 -p cbr -e 500 -c 1 -i 22 -a 1 -x {2.0 9.0 -1 ------- null}
+ -t 0.235 -s 2 -d 10 -p cbr -e 500 -c 1 -i 25 -a 1 -x {2.0 9.0 25 ------- null}
- -t 0.235 -s 2 -d 10 -p cbr -e 500 -c 1 -i 25 -a 1 -x {2.0 9.0 25 ------- null}
h -t 0.235 -s 2 -d 10 -p cbr -e 500 -c 1 -i 25 -a 1 -x {2.0 9.0 -1 ------- null}
h -t 0.235 -s 2 -d 10 -p cbr -e 500 -c 1 -i 27 -a 1 -x {2.0 9.0 27 ------- null}
r -t 0.238116 -s 4 -d 5 -p cbr -e 500 -c 1 -i 16 -a 1 -x {2.0 9.0 16 ------- null}
h -t 0.238116 -s 5 -d 11 -p cbr -e 500 -c 1 -i 16 -a 1 -x {2.0 9.0 16 ------- null}
+ -t 0.238116 -s 5 -d 11 -p cbr -e 500 -c 1 -i 14 -a 1 -x {2.0 9.0 14 ------- null}
- -t 0.238116 -s 5 -d 11 -p cbr -e 500 -c 1 -i 14 -a 1 -x {2.0 9.0 14 ------- null}
h -t 0.238116 -s 5 -d 11 -p cbr -e 500 -c 1 -i 14 -a 1 -x {2.0 9.0 -1 ------- null}
r -t 0.239116 -s 10 -d 4 -p cbr -e 500 -c 1 -i 23 -a 1 -x {2.0 9.0 23 ------- null}
+ -t 0.239116 -s 4 -d 5 -p cbr -e 500 -c 1 -i 23 -a 1 -x {2.0 9.0 23 ------- null}
- -t 0.239116 -s 4 -d 5 -p cbr -e 500 -c 1 -i 23 -a 1 -x {2.0 9.0 23 ------- null}
h -t 0.239116 -s 4 -d 5 -p cbr -e 500 -c 1 -i 23 -a 1 -x {2.0 9.0 -1 ------- null}
+ -t 0.24 -s 2 -d 10 -p cbr -e 500 -c 1 -i 26 -a 1 -x {2.0 9.0 26 ------- null}
- -t 0.24 -s 2 -d 10 -p cbr -e 500 -c 1 -i 26 -a 1 -x {2.0 9.0 26 ------- null}
h -t 0.24 -s 2 -d 10 -p cbr -e 500 -c 1 -i 26 -a 1 -x {2.0 9.0 -1 ------- null}
h -t 0.24 -s 2 -d 10 -p cbr -e 500 -c 1 -i 28 -a 1 -x {2.0 9.0 28 ------- null}
r -t 0.242232 -s 11 -d 9 -p cbr -e 500 -c 1 -i 12 -a 1 -x {2.0 9.0 12 ------- null}
+ -t 0.243116 -s 5 -d 11 -p cbr -e 500 -c 1 -i 15 -a 1 -x {2.0 9.0 15 ------- null}
- -t 0.243116 -s 5 -d 11 -p cbr -e 500 -c 1 -i 15 -a 1 -x {2.0 9.0 15 ------- null}
h -t 0.243116 -s 5 -d 11 -p cbr -e 500 -c 1 -i 15 -a 1 -x {2.0 9.0 -1 ------- null}
r -t 0.244116 -s 10 -d 4 -p cbr -e 500 -c 1 -i 24 -a 1 -x {2.0 9.0 24 ------- null}
+ -t 0.244116 -s 4 -d 5 -p cbr -e 500 -c 1 -i 24 -a 1 -x {2.0 9.0 24 ------- null}
- -t 0.244116 -s 4 -d 5 -p cbr -e 500 -c 1 -i 24 -a 1 -x {2.0 9.0 24 ------- null}
h -t 0.244116 -s 4 -d 5 -p cbr -e 500 -c 1 -i 24 -a 1 -x {2.0 9.0 -1 ------- null}
+ -t 0.245 -s 2 -d 10 -p cbr -e 500 -c 1 -i 27 -a 1 -x {2.0 9.0 27 ------- null}
- -t 0.245 -s 2 -d 10 -p cbr -e 500 -c 1 -i 27 -a 1 -x {2.0 9.0 27 ------- null}
h -t 0.245 -s 2 -d 10 -p cbr -e 500 -c 1 -i 27 -a 1 -x {2.0 9.0 -1 ------- null}
h -t 0.245 -s 2 -d 10 -p cbr -e 500 -c 1 -i 29 -a 1 -x {2.0 9.0 29 ------- null}
r -t 0.247232 -s 11 -d 9 -p cbr -e 500 -c 1 -i 13 -a 1 -x {2.0 9.0 13 ------- null}
r -t 0.248116 -s 4 -d 5 -p cbr -e 500 -c 1 -i 18 -a 1 -x {2.0 9.0 18 ------- null}
h -t 0.248116 -s 5 -d 11 -p cbr -e 500 -c 1 -i 18 -a 1 -x {2.0 9.0 18 ------- null}
+ -t 0.248116 -s 5 -d 11 -p cbr -e 500 -c 1 -i 16 -a 1 -x {2.0 9.0 16 ------- null}
- -t 0.248116 -s 5 -d 11 -p cbr -e 500 -c 1 -i 16 -a 1 -x {2.0 9.0 16 ------- null}
h -t 0.248116 -s 5 -d 11 -p cbr -e 500 -c 1 -i 16 -a 1 -x {2.0 9.0 -1 ------- null}
r -t 0.249116 -s 10 -d 4 -p cbr -e 500 -c 1 -i 25 -a 1 -x {2.0 9.0 25 ------- null}
+ -t 0.249116 -s 4 -d 5 -p cbr -e 500 -c 1 -i 25 -a 1 -x {2.0 9.0 25 ------- null}
- -t 0.249116 -s 4 -d 5 -p cbr -e 500 -c 1 -i 25 -a 1 -x {2.0 9.0 25 ------- null}
h -t 0.249116 -s 4 -d 5 -p cbr -e 500 -c 1 -i 25 -a 1 -x {2.0 9.0 -1 ------- null}
+ -t 0.25 -s 2 -d 10 -p cbr -e 500 -c 1 -i 28 -a 1 -x {2.0 9.0 28 ------- null}
- -t 0.25 -s 2 -d 10 -p cbr -e 500 -c 1 -i 28 -a 1 -x {2.0 9.0 28 ------- null}
h -t 0.25 -s 2 -d 10 -p cbr -e 500 -c 1 -i 28 -a 1 -x {2.0 9.0 -1 ------- null}
h -t 0.25 -s 2 -d 10 -p cbr -e 500 -c 1 -i 30 -a 1 -x {2.0 9.0 30 ------- null}
r -t 0.252232 -s 11 -d 9 -p cbr -e 500 -c 1 -i 14 -a 1 -x {2.0 9.0 14 ------- null}
r -t 0.253116 -s 4 -d 5 -p cbr -e 500 -c 1 -i 19 -a 1 -x {2.0 9.0 19 ------- null}
h -t 0.253116 -s 5 -d 11 -p cbr -e 500 -c 1 -i 19 -a 1 -x {2.0 9.0 19 ------- null}
r -t 0.254116 -s 10 -d 4 -p cbr -e 500 -c 1 -i 26 -a 1 -x {2.0 9.0 26 ------- null}
+ -t 0.254116 -s 4 -d 5 -p cbr -e 500 -c 1 -i 26 -a 1 -x {2.0 9.0 26 ------- null}
- -t 0.254116 -s 4 -d 5 -p cbr -e 500 -c 1 -i 26 -a 1 -x {2.0 9.0 26 ------- null}
h -t 0.254116 -s 4 -d 5 -p cbr -e 500 -c 1 -i 26 -a 1 -x {2.0 9.0 -1 ------- null}
+ -t 0.255 -s 2 -d 10 -p cbr -e 500 -c 1 -i 29 -a 1 -x {2.0 9.0 29 ------- null}
- -t 0.255 -s 2 -d 10 -p cbr -e 500 -c 1 -i 29 -a 1 -x {2.0 9.0 29 ------- null}
h -t 0.255 -s 2 -d 10 -p cbr -e 500 -c 1 -i 29 -a 1 -x {2.0 9.0 -1 ------- null}
h -t 0.255 -s 2 -d 10 -p cbr -e 500 -c 1 -i 31 -a 1 -x {2.0 9.0 31 ------- null}
r -t 0.257232 -s 11 -d 9 -p cbr -e 500 -c 1 -i 15 -a 1 -x {2.0 9.0 15 ------- null}
r -t 0.258116 -s 4 -d 5 -p cbr -e 500 -c 1 -i 20 -a 1 -x {2.0 9.0 20 ------- null}
h -t 0.258116 -s 5 -d 11 -p cbr -e 500 -c 1 -i 20 -a 1 -x {2.0 9.0 20 ------- null}
+ -t 0.258116 -s 5 -d 11 -p cbr -e 500 -c 1 -i 18 -a 1 -x {2.0 9.0 18 ------- null}
- -t 0.258116 -s 5 -d 11 -p cbr -e 500 -c 1 -i 18 -a 1 -x {2.0 9.0 18 ------- null}
h -t 0.258116 -s 5 -d 11 -p cbr -e 500 -c 1 -i 18 -a 1 -x {2.0 9.0 -1 ------- null}
r -t 0.259116 -s 10 -d 4 -p cbr -e 500 -c 1 -i 27 -a 1 -x {2.0 9.0 27 ------- null}
+ -t 0.259116 -s 4 -d 5 -p cbr -e 500 -c 1 -i 27 -a 1 -x {2.0 9.0 27 ------- null}
- -t 0.259116 -s 4 -d 5 -p cbr -e 500 -c 1 -i 27 -a 1 -x {2.0 9.0 27 ------- null}
h -t 0.259116 -s 4 -d 5 -p cbr -e 500 -c 1 -i 27 -a 1 -x {2.0 9.0 -1 ------- null}
+ -t 0.26 -s 2 -d 10 -p cbr -e 500 -c 1 -i 30 -a 1 -x {2.0 9.0 30 ------- null}
- -t 0.26 -s 2 -d 10 -p cbr -e 500 -c 1 -i 30 -a 1 -x {2.0 9.0 30 ------- null}
h -t 0.26 -s 2 -d 10 -p cbr -e 500 -c 1 -i 30 -a 1 -x {2.0 9.0 -1 ------- null}
h -t 0.26 -s 2 -d 10 -p cbr -e 500 -c 1 -i 32 -a 1 -x {2.0 9.0 32 ------- null}
r -t 0.262232 -s 11 -d 9 -p cbr -e 500 -c 1 -i 16 -a 1 -x {2.0 9.0 16 ------- null}
r -t 0.263116 -s 4 -d 5 -p cbr -e 500 -c 1 -i 21 -a 1 -x {2.0 9.0 21 ------- null}
h -t 0.263116 -s 5 -d 11 -p cbr -e 500 -c 1 -i 21 -a 1 -x {2.0 9.0 21 ------- null}
+ -t 0.263116 -s 5 -d 11 -p cbr -e 500 -c 1 -i 19 -a 1 -x {2.0 9.0 19 ------- null}
- -t 0.263116 -s 5 -d 11 -p cbr -e 500 -c 1 -i 19 -a 1 -x {2.0 9.0 19 ------- null}
h -t 0.263116 -s 5 -d 11 -p cbr -e 500 -c 1 -i 19 -a 1 -x {2.0 9.0 -1 ------- null}
r -t 0.264116 -s 10 -d 4 -p cbr -e 500 -c 1 -i 28 -a 1 -x {2.0 9.0 28 ------- null}
+ -t 0.264116 -s 4 -d 5 -p cbr -e 500 -c 1 -i 28 -a 1 -x {2.0 9.0 28 ------- null}
- -t 0.264116 -s 4 -d 5 -p cbr -e 500 -c 1 -i 28 -a 1 -x {2.0 9.0 28 ------- null}
h -t 0.264116 -s 4 -d 5 -p cbr -e 500 -c 1 -i 28 -a 1 -x {2.0 9.0 -1 ------- null}
+ -t 0.265 -s 2 -d 10 -p cbr -e 500 -c 1 -i 31 -a 1 -x {2.0 9.0 31 ------- null}
- -t 0.265 -s 2 -d 10 -p cbr -e 500 -c 1 -i 31 -a 1 -x {2.0 9.0 31 ------- null}
h -t 0.265 -s 2 -d 10 -p cbr -e 500 -c 1 -i 31 -a 1 -x {2.0 9.0 -1 ------- null}
h -t 0.265 -s 2 -d 10 -p cbr -e 500 -c 1 -i 33 -a 1 -x {2.0 9.0 33 ------- null}
r -t 0.268116 -s 4 -d 5 -p cbr -e 500 -c 1 -i 22 -a 1 -x {2.0 9.0 22 ------- null}
h -t 0.268116 -s 5 -d 11 -p cbr -e 500 -c 1 -i 22 -a 1 -x {2.0 9.0 22 ------- null}
+ -t 0.268116 -s 5 -d 11 -p cbr -e 500 -c 1 -i 20 -a 1 -x {2.0 9.0 20 ------- null}
- -t 0.268116 -s 5 -d 11 -p cbr -e 500 -c 1 -i 20 -a 1 -x {2.0 9.0 20 ------- null}
h -t 0.268116 -s 5 -d 11 -p cbr -e 500 -c 1 -i 20 -a 1 -x {2.0 9.0 -1 ------- null}
r -t 0.269116 -s 10 -d 4 -p cbr -e 500 -c 1 -i 29 -a 1 -x {2.0 9.0 29 ------- null}
+ -t 0.269116 -s 4 -d 5 -p cbr -e 500 -c 1 -i 29 -a 1 -x {2.0 9.0 29 ------- null}
- -t 0.269116 -s 4 -d 5 -p cbr -e 500 -c 1 -i 29 -a 1 -x {2.0 9.0 29 ------- null}
h -t 0.269116 -s 4 -d 5 -p cbr -e 500 -c 1 -i 29 -a 1 -x {2.0 9.0 -1 ------- null}
+ -t 0.27 -s 2 -d 10 -p cbr -e 500 -c 1 -i 32 -a 1 -x {2.0 9.0 32 ------- null}
- -t 0.27 -s 2 -d 10 -p cbr -e 500 -c 1 -i 32 -a 1 -x {2.0 9.0 32 ------- null}
h -t 0.27 -s 2 -d 10 -p cbr -e 500 -c 1 -i 32 -a 1 -x {2.0 9.0 -1 ------- null}
h -t 0.27 -s 2 -d 10 -p cbr -e 500 -c 1 -i 34 -a 1 -x {2.0 9.0 34 ------- null}
r -t 0.272232 -s 11 -d 9 -p cbr -e 500 -c 1 -i 18 -a 1 -x {2.0 9.0 18 ------- null}
r -t 0.273116 -s 4 -d 5 -p cbr -e 500 -c 1 -i 23 -a 1 -x {2.0 9.0 23 ------- null}
h -t 0.273116 -s 5 -d 11 -p cbr -e 500 -c 1 -i 23 -a 1 -x {2.0 9.0 23 ------- null}