M 0.01000 0 (60.00, 60.00, 0.00), (50.00, 50.00), 0.00
M 0.01000 1 (120.00, 60.00, 0.00), (160.00, 160.00), 0.00
M 0.01000 2 (60.00, 100.00, 0.00), (100.00, 100.00), 0.00
M 0.01000 3 (120.00, 120.00, 0.00), (70.00, 70.00), 0.00
s 0.500000000 _0_ AGT  --- 0 tcp 40 [0 0 0 0] ------- [0:0 1:0 32 0] [0 0] 0 0
r 0.500000000 _0_ RTR  --- 0 tcp 40 [0 0 0 0] ------- [0:0 1:0 32 0] [0 0] 0 0
s 0.500000000 _0_ RTR  --- 0 AODV 48 [0 0 0 0] ------- [0:255 -1:255 30 0] [0x2 1 1 [1 0] [0 4]] (REQUEST)
r 0.501508133 _2_ RTR  --- 0 AODV 48 [0 ffffffff 0 800] ------- [0:255 -1:255 30 0] [0x2 1 1 [1 0] [0 4]] (REQUEST)
r 0.501508200 _1_ RTR  --- 0 AODV 48 [0 ffffffff 0 800] ------- [0:255 -1:255 30 0] [0x2 1 1 [1 0] [0 4]] (REQUEST)
s 0.501508200 _1_ RTR  --- 0 AODV 44 [0 0 0 0] ------- [1:255 0:255 30 0] [0x4 1 [1 4] 10.000000] (REPLY)
r 0.501508283 _3_ RTR  --- 0 AODV 48 [0 ffffffff 0 800] ------- [0:255 -1:255 30 0] [0x2 1 1 [1 0] [0 4]] (REQUEST)
r 0.505907600 _0_ RTR  --- 0 AODV 44 [13a 0 1 800] ------- [1:255 0:255 30 0] [0x4 1 [1 4] 10.000000] (REPLY)
s 0.505907600 _0_ RTR  --- 0 tcp 40 [0 0 0 0] ------- [0:0 1:0 30 1] [0 0] 0 0
s 0.505919867 _2_ RTR  --- 0 AODV 48 [0 ffffffff 0 800] ------- [2:255 -1:255 29 0] [0x2 2 1 [1 0] [0 4]] (REQUEST)
r 0.507912200 _1_ AGT  --- 0 tcp 40 [13a 1 0 800] ------- [0:0 1:0 30 1] [0 0] 1 0
s 0.507912200 _1_ AGT  --- 1 ack 40 [0 0 0 0] ------- [1:0 0:0 32 0] [0 0] 0 0
r 0.507912200 _1_ RTR  --- 1 ack 40 [0 0 0 0] ------- [1:0 0:0 32 0] [0 0] 0 0
s 0.507912200 _1_ RTR  --- 1 ack 40 [0 0 0 0] ------- [1:0 0:0 30 0] [0 0] 0 0
s 0.509499837 _3_ RTR  --- 0 AODV 48 [0 ffffffff 0 800] ------- [3:255 -1:255 29 0] [0x2 2 1 [1 0] [0 4]] (REQUEST)
r 0.509836800 _0_ AGT  --- 1 ack 40 [13a 0 1 800] ------- [1:0 0:0 30 0] [0 0] 1 0
s 0.509836800 _0_ AGT  --- 2 tcp 1040 [0 0 0 0] ------- [0:0 1:0 32 0] [1 0] 0 0
r 0.509836800 _0_ RTR  --- 2 tcp 1040 [0 0 0 0] ------- [0:0 1:0 32 0] [1 0] 0 0
s 0.509836800 _0_ AGT  --- 3 tcp 1040 [0 0 0 0] ------- [0:0 1:0 32 0] [2 0] 0 0
r 0.509836800 _0_ RTR  --- 3 tcp 1040 [0 0 0 0] ------- [0:0 1:0 32 0] [2 0] 0 0
s 0.509836800 _0_ RTR  --- 2 tcp 1040 [0 0 0 0] ------- [0:0 1:0 30 1] [1 0] 0 0
s 0.509836800 _0_ RTR  --- 3 tcp 1040 [0 0 0 0] ------- [0:0 1:0 30 1] [2 0] 0 0
r 0.511089283 _1_ RTR  --- 0 AODV 48 [0 ffffffff 3 800] ------- [3:255 -1:255 29 0] [0x2 2 1 [1 0] [0 4]] (REQUEST)
r 0.511089294 _2_ RTR  --- 0 AODV 48 [0 ffffffff 3 800] ------- [3:255 -1:255 29 0] [0x2 2 1 [1 0] [0 4]] (REQUEST)
r 0.511089366 _0_ RTR  --- 0 AODV 48 [0 ffffffff 3 800] ------- [3:255 -1:255 29 0] [0x2 2 1 [1 0] [0 4]] (REQUEST)
r 0.512067427 _0_ RTR  --- 0 AODV 48 [0 ffffffff 2 800] ------- [2:255 -1:255 29 0] [0x2 2 1 [1 0] [0 4]] (REQUEST)
r 0.512067504 _3_ RTR  --- 0 AODV 48 [0 ffffffff 2 800] ------- [2:255 -1:255 29 0] [0x2 2 1 [1 0] [0 4]] (REQUEST)
r 0.512067534 _1_ RTR  --- 0 AODV 48 [0 ffffffff 2 800] ------- [2:255 -1:255 29 0] [0x2 2 1 [1 0] [0 4]] (REQUEST)
r 0.521618027 _1_ AGT  --- 2 tcp 1040 [13a 1 0 800] ------- [0:0 1:0 30 1] [1 0] 1 0
s 0.521618027 _1_ AGT  --- 4 ack 40 [0 0 0 0] ------- [1:0 0:0 32 0] [1 0] 0 0
r 0.521618027 _1_ RTR  --- 4 ack 40 [0 0 0 0] ------- [1:0 0:0 32 0] [1 0] 0 0
s 0.521618027 _1_ RTR  --- 4 ack 40 [0 0 0 0] ------- [1:0 0:0 30 0] [1 0] 0 0
r 0.531682827 _1_ AGT  --- 3 tcp 1040 [13a 1 0 800] ------- [0:0 1:0 30 1] [2 0] 1 0
s 0.531682827 _1_ AGT  --- 5 ack 40 [0 0 0 0] ------- [1:0 0:0 32 0] [2 0] 0 0
r 0.531682827 _1_ RTR  --- 5 ack 40 [0 0 0 0] ------- [1:0 0:0 32 0] [2 0] 0 0
s 0.531682827 _1_ RTR  --- 5 ack 40 [0 0 0 0] ------- [1:0 0:0 30 0] [2 0] 0 0
r 0.533647427 _0_ AGT  --- 4 ack 40 [13a 0 1 800] ------- [1:0 0:0 30 0] [1 0] 1 0
s 0.533647427 _0_ AGT  --- 6 tcp 1040 [0 0 0 0] ------- [0:0 1:0 32 0] [3 0] 0 0
r 0.533647427 _0_ RTR  --- 6 tcp 1040 [0 0 0 0] ------- [0:0 1:0 32 0] [3 0] 0 0
s 0.533647427 _0_ AGT  --- 7 tcp 1040 [0 0 0 0] ------- [0:0 1:0 32 0] [4 0] 0 0
r 0.533647427 _0_ RTR  --- 7 tcp 1040 [0 0 0 0] ------- [0:0 1:0 32 0] [4 0] 0 0
s 0.533647427 _0_ RTR  --- 6 tcp 1040 [0 0 0 0] ------- [0:0 1:0 30 1] [3 0] 0 0
s 0.533647427 _0_ RTR  --- 7 tcp 1040 [0 0 0 0] ------- [0:0 1:0 30 1] [4 0] 0 0
r 0.543492027 _1_ AGT  --- 6 tcp 1040 [13a 1 0 800] ------- [0:0 1:0 30 1] [3 0] 1 0
s 0.543492027 _1_ AGT  --- 8 ack 40 [0 0 0 0] ------- [1:0 0:0 32 0] [3 0] 0 0
r 0.543492027 _1_ RTR  --- 8 ack 40 [0 0 0 0] ------- [1:0 0:0 32 0] [3 0] 0 0
s 0.543492027 _1_ RTR  --- 8 ack 40 [0 0 0 0] ------- [1:0 0:0 30 0] [3 0] 0 0
r 0.553656827 _1_ AGT  --- 7 tcp 1040 [13a 1 0 800] ------- [0:0 1:0 30 1] [4 0] 1 0
s 0.553656827 _1_ AGT  --- 9 ack 40 [0 0 0 0] ------- [1:0 0:0 32 0] [4 0] 0 0
r 0.553656827 _1_ RTR  --- 9 ack 40 [0 0 0 0] ------- [1:0 0:0 32 0] [4 0] 0 0
s 0.553656827 _1_ RTR  --- 9 ack 40 [0 0 0 0] ------- [1:0 0:0 30 0] [4 0] 0 0
r 0.555601427 _0_ AGT  --- 5 ack 40 [13a 0 1 800] ------- [1:0 0:0 30 0] [2 0] 1 0
s 0.555601427 _0_ AGT  --- 10 tcp 1040 [0 0 0 0] ------- [0:0 1:0 32 0] [5 0] 0 0
r 0.555601427 _0_ RTR  --- 10 tcp 1040 [0 0 0 0] ------- [0:0 1:0 32 0] [5 0] 0 0
s 0.555601427 _0_ AGT  --- 11 tcp 1040 [0 0 0 0] ------- [0:0 1:0 32 0] [6 0] 0 0
r 0.555601427 _0_ RTR  --- 11 tcp 1040 [0 0 0 0] ------- [0:0 1:0 32 0] [6 0] 0 0
s 0.555601427 _0_ RTR  --- 10 tcp 1040 [0 0 0 0] ------- [0:0 1:0 30 1] [5 0] 0 0
s 0.555601427 _0_ RTR  --- 11 tcp 1040 [0 0 0 0] ------- [0:0 1:0 30 1] [6 0] 0 0
r 0.567332427 _1_ AGT  --- 10 tcp 1040 [13a 1 0 800] ------- [0:0 1:0 30 1] [5 0] 1 0
s 0.567332427 _1_ AGT  --- 12 ack 40 [0 0 0 0] ------- [1:0 0:0 32 0] [5 0] 0 0
r 0.567332427 _1_ RTR  --- 12 ack 40 [0 0 0 0] ------- [1:0 0:0 32 0] [5 0] 0 0
s 0.567332427 _1_ RTR  --- 12 ack 40 [0 0 0 0] ------- [1:0 0:0 30 0] [5 0] 0 0
r 0.569237027 _0_ AGT  --- 8 ack 40 [13a 0 1 800] ------- [1:0 0:0 30 0] [3 0] 1 0
s 0.569237027 _0_ AGT  --- 13 tcp 1040 [0 0 0 0] ------- [0:0 1:0 32 0] [7 0] 0 0
r 0.569237027 _0_ RTR  --- 13 tcp 1040 [0 0 0 0] ------- [0:0 1:0 32 0] [7 0] 0 0
s 0.569237027 _0_ AGT  --- 14 tcp 1040 [0 0 0 0] ------- [0:0 1:0 32 0] [8 0] 0 0
r 0.569237027 _0_ RTR  --- 14 tcp 1040 [0 0 0 0] ------- [0:0 1:0 32 0] [8 0] 0 0
s 0.569237027 _0_ RTR  --- 13 tcp 1040 [0 0 0 0] ------- [0:0 1:0 30 1] [7 0] 0 0
s 0.569237027 _0_ RTR  --- 14 tcp 1040 [0 0 0 0] ------- [0:0 1:0 30 1] [8 0] 0 0
r 0.579241627 _1_ AGT  --- 11 tcp 1040 [13a 1 0 800] ------- [0:0 1:0 30 1] [6 0] 1 0
s 0.579241627 _1_ AGT  --- 15 ack 40 [0 0 0 0] ------- [1:0 0:0 32 0] [6 0] 0 0
r 0.579241627 _1_ RTR  --- 15 ack 40 [0 0 0 0] ------- [1:0 0:0 32 0] [6 0] 0 0
s 0.579241627 _1_ RTR  --- 15 ack 40 [0 0 0 0] ------- [1:0 0:0 30 0] [6 0] 0 0
r 0.589246427 _1_ AGT  --- 13 tcp 1040 [13a 1 0 800] ------- [0:0 1:0 30 1] [7 0] 1 0
s 0.589246427 _1_ AGT  --- 16 ack 40 [0 0 0 0] ------- [1:0 0:0 32 0] [7 0] 0 0
r 0.589246427 _1_ RTR  --- 16 ack 40 [0 0 0 0] ------- [1:0 0:0 32 0] [7 0] 0 0
s 0.589246427 _1_ RTR  --- 16 ack 40 [0 0 0 0] ------- [1:0 0:0 30 0] [7 0] 0 0
r 0.591171027 _0_ AGT  --- 9 ack 40 [13a 0 1 800] ------- [1:0 0:0 30 0] [4 0] 1 0
s 0.591171027 _0_ AGT  --- 17 tcp 1040 [0 0 0 0] ------- [0:0 1:0 32 0] [9 0] 0 0
r 0.591171027 _0_ RTR  --- 17 tcp 1040 [0 0 0 0] ------- [0:0 1:0 32 0] [9 0] 0 0
s 0.591171027 _0_ AGT  --- 18 tcp 1040 [0 0 0 0] ------- [0:0 1:0 32 0] [10 0] 0 0
r 0.591171027 _0_ RTR  --- 18 tcp 1040 [0 0 0 0] ------- [0:0 1:0 32 0] [10 0] 0 0
s 0.591171027 _0_ RTR  --- 17 tcp 1040 [0 0 0 0] ------- [0:0 1:0 30 1] [9 0] 0 0
s 0.591171027 _0_ RTR  --- 18 tcp 1040 [0 0 0 0] ------- [0:0 1:0 30 1] [10 0] 0 0
r 0.593395827 _0_ AGT  --- 12 ack 40 [13a 0 1 800] ------- [1:0 0:0 30 0] [5 0] 1 0
s 0.593395827 _0_ AGT  --- 19 tcp 1040 [0 0 0 0] ------- [0:0 1:0 32 0] [11 0] 0 0
r 0.593395827 _0_ RTR  --- 19 tcp 1040 [0 0 0 0] ------- [0:0 1:0 32 0] [11 0] 0 0
s 0.593395827 _0_ AGT  --- 20 tcp 1040 [0 0 0 0] ------- [0:0 1:0 32 0] [12 0] 0 0
r 0.593395827 _0_ RTR  --- 20 tcp 1040 [0 0 0 0] ------- [0:0 1:0 32 0] [12 0] 0 0
s 0.593395827 _0_ RTR  --- 19 tcp 1040 [0 0 0 0] ------- [0:0 1:0 30 1] [11 0] 0 0
s 0.593395827 _0_ RTR  --- 20 tcp 1040 [0 0 0 0] ------- [0:0 1:0 30 1] [12 0] 0 0
r 0.603320427 _1_ AGT  --- 14 tcp 1040 [13a 1 0 800] ------- [0:0 1:0 30 1] [8 0] 1 0
s 0.603320427 _1_ AGT  --- 21 ack 40 [0 0 0 0] ------- [1:0 0:0 32 0] [8 0] 0 0
r 0.603320427 _1_ RTR  --- 21 ack 40 [0 0 0 0] ------- [1:0 0:0 32 0] [8 0] 0 0
s 0.603320427 _1_ RTR  --- 21 ack 40 [0 0 0 0] ------- [1:0 0:0 30 0] [8 0] 0 0
r 0.613505227 _1_ AGT  --- 17 tcp 1040 [13a 1 0 800] ------- [0:0 1:0 30 1] [9 0] 1 0
s 0.613505227 _1_ AGT  --- 22 ack 40 [0 0 0 0] ------- [1:0 0:0 32 0] [9 0] 0 0
r 0.613505227 _1_ RTR  --- 22 ack 40 [0 0 0 0] ------- [1:0 0:0 32 0] [9 0] 0 0
s 0.613505227 _1_ RTR  --- 22 ack 40 [0 0 0 0] ------- [1:0 0:0 30 0] [9 0] 0 0
r 0.623370027 _1_ AGT  --- 18 tcp 1040 [13a 1 0 800] ------- [0:0 1:0 30 1] [10 0] 1 0
s 0.623370027 _1_ AGT  --- 23 ack 40 [0 0 0 0] ------- [1:0 0:0 32 0] [10 0] 0 0
r 0.623370027 _1_ RTR  --- 23 ack 40 [0 0 0 0] ------- [1:0 0:0 32 0] [10 0] 0 0
s 0.623370027 _1_ RTR  --- 23 ack 40 [0 0 0 0] ------- [1:0 0:0 30 0] [10 0] 0 0
r 0.625254627 _0_ AGT  --- 15 ack 40 [13a 0 1 800] ------- [1:0 0:0 30 0] [6 0] 1 0
s 0.625254627 _0_ AGT  --- 24 tcp 1040 [0 0 0 0] ------- [0:0 1:0 32 0] [13 0] 0 0
r 0.625254627 _0_ RTR  --- 24 tcp 1040 [0 0 0 0] ------- [0:0 1:0 32 0] [13 0] 0 0
s 0.625254627 _0_ AGT  --- 25 tcp 1040 [0 0 0 0] ------- [0:0 1:0 32 0] [14 0] 0 0
r 0.625254627 _0_ RTR  --- 25 tcp 1040 [0 0 0 0] ------- [0:0 1:0 32 0] [14 0] 0 0
s 0.625254627 _0_ RTR  --- 24 tcp 1040 [0 0 0 0] ------- [0:0 1:0 30 1] [13 0] 0 0
s 0.625254627 _0_ RTR  --- 25 tcp 1040 [0 0 0 0] ------- [0:0 1:0 30 1] [14 0] 0 0
r 0.635319227 _1_ AGT  --- 19 tcp 1040 [13a 1 0 800] ------- [0:0 1:0 30 1] [11 0] 1 0
s 0.635319227 _1_ AGT  --- 26 ack 40 [0 0 0 0] ------- [1:0 0:0 32 0] [11 0] 0 0
r 0.635319227 _1_ RTR  --- 26 ack 40 [0 0 0 0] ------- [1:0 0:0 32 0] [11 0] 0 0
s 0.635319227 _1_ RTR  --- 26 ack 40 [0 0 0 0] ------- [1:0 0:0 30 0] [11 0] 0 0
r 0.637263827 _0_ AGT  --- 16 ack 40 [13a 0 1 800] ------- [1:0 0:0 30 0] [7 0] 1 0
s 0.637263827 _0_ AGT  --- 27 tcp 1040 [0 0 0 0] ------- [0:0 1:0 32 0] [15 0] 0 0
r 0.637263827 _0_ RTR  --- 27 tcp 1040 [0 0 0 0] ------- [0:0 1:0 32 0] [15 0] 0 0
s 0.637263827 _0_ AGT  --- 28 tcp 1040 [0 0 0 0] ------- [0:0 1:0 32 0] [16 0] 0 0
r 0.637263827 _0_ RTR  --- 28 tcp 1040 [0 0 0 0] ------- [0:0 1:0 32 0] [16 0] 0 0
s 0.637263827 _0_ RTR  --- 27 tcp 1040 [0 0 0 0] ------- [0:0 1:0 30 1] [15 0] 0 0
s 0.637263827 _0_ RTR  --- 28 tcp 1040 [0 0 0 0] ------- [0:0 1:0 30 1] [16 0] 0 0
r 0.647108427 _1_ AGT  --- 20 tcp 1040 [13a 1 0 800] ------- [0:0 1:0 30 1] [12 0] 1 0
s 0.647108427 _1_ AGT  --- 29 ack 40 [0 0 0 0] ------- [1:0 0:0 32 0] [12 0] 0 0
r 0.647108427 _1_ RTR  --- 29 ack 40 [0 0 0 0] ------- [1:0 0:0 32 0] [12 0] 0 0
s 0.647108427 _1_ RTR  --- 29 ack 40 [0 0 0 0] ------- [1:0 0:0 30 0] [12 0] 0 0
r 0.648993027 _0_ AGT  --- 21 ack 40 [13a 0 1 800] ------- [1:0 0:0 30 0] [8 0] 1 0
s 0.648993027 _0_ AGT  --- 30 tcp 1040 [0 0 0 0] ------- [0:0 1:0 32 0] [17 0] 0 0
r 0.648993027 _0_ RTR  --- 30 tcp 1040 [0 0 0 0] ------- [0:0 1:0 32 0] [17 0] 0 0
s 0.648993027 _0_ AGT  --- 31 tcp 1040 [0 0 0 0] ------- [0:0 1:0 32 0] [18 0] 0 0
r 0.648993027 _0_ RTR  --- 31 tcp 1040 [0 0 0 0] ------- [0:0 1:0 32 0] [18 0] 0 0
s 0.648993027 _0_ RTR  --- 30 tcp 1040 [0 0 0 0] ------- [0:0 1:0 30 1] [17 0] 0 0
s 0.648993027 _0_ RTR  --- 31 tcp 1040 [0 0 0 0] ------- [0:0 1:0 30 1] [18 0] 0 0
r 0.651017827 _0_ AGT  --- 22 ack 40 [13a 0 1 800] ------- [1:0 0:0 30 0] [9 0] 1 0
s 0.651017827 _0_ AGT  --- 32 tcp 1040 [0 0 0 0] ------- [0:0 1:0 32 0] [19 0] 0 0
r 0.651017827 _0_ RTR  --- 32 tcp 1040 [0 0 0 0] ------- [0:0 1:0 32 0] [19 0] 0 0
s 0.651017827 _0_ AGT  --- 33 tcp 1040 [0 0 0 0] ------- [0:0 1:0 32 0] [20 0] 0 0
r 0.651017827 _0_ RTR  --- 33 tcp 1040 [0 0 0 0] ------- [0:0 1:0 32 0] [20 0] 0 0
s 0.651017827 _0_ RTR  --- 32 tcp 1040 [0 0 0 0] ------- [0:0 1:0 30 1] [19 0] 0 0
s 0.651017827 _0_ RTR  --- 33 tcp 1040 [0 0 0 0] ------- [0:0 1:0 30 1] [20 0] 0 0
r 0.660862427 _1_ AGT  --- 24 tcp 1040 [13a 1 0 800] ------- [0:0 1:0 30 1] [13 0] 1 0
s 0.660862427 _1_ AGT  --- 34 ack 40 [0 0 0 0] ------- [1:0 0:0 32 0] [13 0] 0 0
r 0.660862427 _1_ RTR  --- 34 ack 40 [0 0 0 0] ------- [1:0 0:0 32 0] [13 0] 0 0
s 0.660862427 _1_ RTR  --- 34 ack 40 [0 0 0 0] ------- [1:0 0:0 30 0] [13 0] 0 0
r 0.662767027 _0_ AGT  --- 23 ack 40 [13a 0 1 800] ------- [1:0 0:0 30 0] [10 0] 1 0
s 0.662767027 _0_ AGT  --- 35 tcp 1040 [0 0 0 0] ------- [0:0 1:0 32 0] [21 0] 0 0
r 0.662767027 _0_ RTR  --- 35 tcp 1040 [0 0 0 0] ------- [0:0 1:0 32 0] [21 0] 0 0
s 0.662767027 _0_ AGT  --- 36 tcp 1040 [0 0 0 0] ------- [0:0 1:0 32 0] [22 0] 0 0
r 0.662767027 _0_ RTR  --- 36 tcp 1040 [0 0 0 0] ------- [0:0 1:0 32 0] [22 0] 0 0
s 0.662767027 _0_ RTR  --- 35 tcp 1040 [0 0 0 0] ------- [0:0 1:0 30 1] [21 0] 0 0
s 0.662767027 _0_ RTR  --- 36 tcp 1040 [0 0 0 0] ------- [0:0 1:0 30 1] [22 0] 0 0
r 0.664811827 _0_ AGT  --- 26 ack 40 [13a 0 1 800] ------- [1:0 0:0 30 0] [11 0] 1 0
s 0.664811827 _0_ AGT  --- 37 tcp 1040 [0 0 0 0] ------- [0:0 1:0 32 0] [23 0] 0 0
r 0.664811827 _0_ RTR  --- 37 tcp 1040 [0 0 0 0] ------- [0:0 1:0 32 0] [23 0] 0 0
s 0.664811827 _0_ AGT  --- 38 tcp 1040 [0 0 0 0] ------- [0:0 1:0 32 0] [24 0] 0 0
r 0.664811827 _0_ RTR  --- 38 tcp 1040 [0 0 0 0] ------- [0:0 1:0 32 0] [24 0] 0 0
s 0.664811827 _0_ RTR  --- 37 tcp 1040 [0 0 0 0] ------- [0:0 1:0 30 1] [23 0] 0 0
s 0.664811827 _0_ RTR  --- 38 tcp 1040 [0 0 0 0] ------- [0:0 1:0 30 1] [24 0] 0 0
r 0.666836627 _0_ AGT  --- 29 ack 40 [13a 0 1 800] ------- [1:0 0:0 30 0] [12 0] 1 0
s 0.666836627 _0_ AGT  --- 39 tcp 1040 [0 0 0 0] ------- [0:0 1:0 32 0] [25 0] 0 0
r 0.666836627 _0_ RTR  --- 39 tcp 1040 [0 0 0 0] ------- [0:0 1:0 32 0] [25 0] 0 0
s 0.666836627 _0_ AGT  --- 40 tcp 1040 [0 0 0 0] ------- [0:0 1:0 32 0] [26 0] 0 0
r 0.666836627 _0_ RTR  --- 40 tcp 1040 [0 0 0 0] ------- [0:0 1:0 32 0] [26 0] 0 0
s 0.666836627 _0_ RTR  --- 39 tcp 1040 [0 0 0 0] ------- [0:0 1:0 30 1] [25 0] 0 0
s 0.666836627 _0_ RTR  --- 40 tcp 1040 [0 0 0 0] ------- [0:0 1:0 30 1] [26 0] 0 0
r 0.676701227 _1_ AGT  --- 25 tcp 1040 [13a 1 0 800] ------- [0:0 1:0 30 1] [14 0] 1 0
s 0.676701227 _1_ AGT  --- 41 ack 40 [0 0 0 0] ------- [1:0 0:0 32 0] [14 0] 0 0
r 0.676701227 _1_ RTR  --- 41 ack 40 [0 0 0 0] ------- [1:0 0:0 32 0] [14 0] 0 0
s 0.676701227 _1_ RTR  --- 41 ack 40 [0 0 0 0] ------- [1:0 0:0 30 0] [14 0] 0 0
r 0.686586027 _1_ AGT  --- 27 tcp 1040 [13a 1 0 800] ------- [0:0 1:0 30 1] [15 0] 1 0
s 0.686586027 _1_ AGT  --- 42 ack 40 [0 0 0 0] ------- [1:0 0:0 32 0] [15 0] 0 0
r 0.686586027 _1_ RTR  --- 42 ack 40 [0 0 0 0] ------- [1:0 0:0 32 0] [15 0] 0 0
s 0.686586027 _1_ RTR  --- 42 ack 40 [0 0 0 0] ------- [1:0 0:0 30 0] [15 0] 0 0
r 0.696530827 _1_ AGT  --- 28 tcp 1040 [13a 1 0 800] ------- [0:0 1:0 30 1] [16 0] 1 0
s 0.696530827 _1_ AGT  --- 43 ack 40 [0 0 0 0] ------- [1:0 0:0 32 0] [16 0] 0 0
r 0.696530827 _1_ RTR  --- 43 ack 40 [0 0 0 0] ------- [1:0 0:0 32 0] [16 0] 0 0
s 0.696530827 _1_ RTR  --- 43 ack 40 [0 0 0 0] ------- [1:0 0:0 30 0] [16 0] 0 0
r 0.706695627 _1_ AGT  --- 30 tcp 1040 [13a 1 0 800] ------- [0:0 1:0 30 1] [17 0] 1 0
s 0.706695627 _1_ AGT  --- 44 ack 40 [0 0 0 0] ------- [1:0 0:0 32 0] [17 0] 0 0
r 0.706695627 _1_ RTR  --- 44 ack 40 [0 0 0 0] ------- [1:0 0:0 32 0] [17 0] 0 0
s 0.706695627 _1_ RTR  --- 44 ack 40 [0 0 0 0] ------- [1:0 0:0 30 0] [17 0] 0 0
r 0.708540227 _0_ AGT  --- 34 ack 40 [13a 0 1 800] ------- [1:0 0:0 30 0] [13 0] 1 0
s 0.708540227 _0_ AGT  --- 45 tcp 1040 [0 0 0 0] ------- [0:0 1:0 32 0] [27 0] 0 0
r 0.708540227 _0_ RTR  --- 45 tcp 1040 [0 0 0 0] ------- [0:0 1:0 32 0] [27 0] 0 0
s 0.708540227 _0_ AGT  --- 46 tcp 1040 [0 0 0 0] ------- [0:0 1:0 32 0] [28 0] 0 0
r 0.708540227 _0_ RTR  --- 46 tcp 1040 [0 0 0 0] ------- [0:0 1:0 32 0] [28 0] 0 0
s 0.708540227 _0_ RTR  --- 45 tcp 1040 [0 0 0 0] ------- [0:0 1:0 30 1] [27 0] 0 0
s 0.708540227 _0_ RTR  --- 46 tcp 1040 [0 0 0 0] ------- [0:0 1:0 30 1] [28 0] 0 0
r 0.710645027 _0_ AGT  --- 41 ack 40 [13a 0 1 800] ------- [1:0 0:0 30 0] [14 0] 1 0
s 0.710645027 _0_ AGT  --- 47 tcp 1040 [0 0 0 0] ------- [0:0 1:0 32 0] [29 0] 0 0
r 0.710645027 _0_ RTR  --- 47 tcp 1040 [0 0 0 0] ------- [0:0 1:0 32 0] [29 0] 0 0
s 0.710645027 _0_ AGT  --- 48 tcp 1040 [0 0 0 0] ------- [0:0 1:0 32 0] [30 0] 0 0
r 0.710645027 _0_ RTR  --- 48 tcp 1040 [0 0 0 0] ------- [0:0 1:0 32 0] [30 0] 0 0
s 0.710645027 _0_ RTR  --- 47 tcp 1040 [0 0 0 0] ------- [0:0 1:0 30 1] [29 0] 0 0
s 0.710645027 _0_ RTR  --- 48 tcp 1040 [0 0 0 0] ------- [0:0 1:0 30 1] [30 0] 0 0
r 0.712649827 _0_ AGT  --- 42 ack 40 [13a 0 1 800] ------- [1:0 0:0 30 0] [15 0] 1 0
s 0.712649827 _0_ AGT  --- 49 tcp 1040 [0 0 0 0] ------- [0:0 1:0 32 0] [31 0] 0 0
r 0.712649827 _0_ RTR  --- 49 tcp 1040 [0 0 0 0] ------- [0:0 1:0 32 0] [31 0] 0 0
s 0.712649827 _0_ AGT  --- 50 tcp 1040 [0 0 0 0] ------- [0:0 1:0 32 0] [32 0] 0 0
r 0.712649827 _0_ RTR  --- 50 tcp 1040 [0 0 0 0] ------- [0:0 1:0 32 0] [32 0] 0 0
s 0.712649827 _0_ RTR  --- 49 tcp 1040 [0 0 0 0] ------- [0:0 1:0 30 1] [31 0] 0 0
s 0.712649827 _0_ RTR  --- 50 tcp 1040 [0 0 0 0] ------- [0:0 1:0 30 1] [32 0] 0 0
r 0.722494427 _1_ AGT  --- 31 tcp 1040 [13a 1 0 800] ------- [0:0 1:0 30 1] [18 0] 1 0
s 0.722494427 _1_ AGT  --- 51 ack 40 [0 0 0 0] ------- [1:0 0:0 32 0] [18 0] 0 0
r 0.722494427 _1_ RTR  --- 51 ack 40 [0 0 0 0] ------- [1:0 0:0 32 0] [18 0] 0 0
s 0.722494427 _1_ RTR  --- 51 ack 40 [0 0 0 0] ------- [1:0 0:0 30 0] [18 0] 0 0
r 0.724579027 _0_ AGT  --- 43 ack 40 [13a 0 1 800] ------- [1:0 0:0 30 0] [16 0] 1 0
s 0.724579027 _0_ AGT  --- 52 tcp 1040 [0 0 0 0] ------- [0:0 1:0 32 0] [33 0] 0 0
r 0.724579027 _0_ RTR  --- 52 tcp 1040 [0 0 0 0] ------- [0:0 1:0 32 0] [33 0] 0 0
s 0.724579027 _0_ AGT  --- 53 tcp 1040 [0 0 0 0] ------- [0:0 1:0 32 0] [34 0] 0 0
r 0.724579027 _0_ RTR  --- 53 tcp 1040 [0 0 0 0] ------- [0:0 1:0 32 0] [34 0] 0 0
s 0.724579027 _0_ RTR  --- 52 tcp 1040 [0 0 0 0] ------- [0:0 1:0 30 1] [33 0] 0 0
s 0.724579027 _0_ RTR  --- 53 tcp 1040 [0 0 0 0] ------- [0:0 1:0 30 1] [34 0] 0 0
r 0.726403827 _0_ AGT  --- 44 ack 40 [13a 0 1 800] ------- [1:0 0:0 30 0] [17 0] 1 0
s 0.726403827 _0_ AGT  --- 54 tcp 1040 [0 0 0 0] ------- [0:0 1:0 32 0] [35 0] 0 0
r 0.726403827 _0_ RTR  --- 54 tcp 1040 [0 0 0 0] ------- [0:0 1:0 32 0] [35 0] 0 0
s 0.726403827 _0_ AGT  --- 55 tcp 1040 [0 0 0 0] ------- [0:0 1:0 32 0] [36 0] 0 0
r 0.726403827 _0_ RTR  --- 55 tcp 1040 [0 0 0 0] ------- [0:0 1:0 32 0] [36 0] 0 0
s 0.726403827 _0_ RTR  --- 54 tcp 1040 [0 0 0 0] ------- [0:0 1:0 30 1] [35 0] 0 0
s 0.726403827 _0_ RTR  --- 55 tcp 1040 [0 0 0 0] ------- [0:0 1:0 30 1] [36 0] 0 0
r 0.729554627 _0_ AGT  --- 51 ack 40 [13a 0 1 800] ------- [1:0 0:0 30 0] [18 0] 1 0
s 0.729554627 _0_ AGT  --- 56 tcp 1040 [0 0 0 0] ------- [0:0 1:0 32 0] [37 0] 0 0
r 0.729554627 _0_ RTR  --- 56 tcp 1040 [0 0 0 0] ------- [0:0 1:0 32 0] [37 0] 0 0
s 0.729554627 _0_ AGT  --- 57 tcp 1040 [0 0 0 0] ------- [0:0 1:0 32 0] [38 0] 0 0
r 0.729554627 _0_ RTR  --- 57 tcp 1040 [0 0 0 0] ------- [0:0 1:0 32 0] [38 0] 0 0
s 0.729554627 _0_ RTR  --- 56 tcp 1040 [0 0 0 0] ------- [0:0 1:0 30 1] [37 0] 0 0
s 0.729554627 _0_ RTR  --- 57 tcp 1040 [0 0 0 0] ------- [0:0 1:0 30 1] [38 0] 0 0
r 0.739919227 _1_ AGT  --- 32 tcp 1040 [13a 1 0 800] ------- [0:0 1:0 30 1] [19 0] 1 0
s 0.739919227 _1_ AGT  --- 58 ack 40 [0 0 0 0] ------- [1:0 0:0 32 0] [19 0] 0 0
r 0.739919227 _1_ RTR  --- 58 ack 40 [0 0 0 0] ------- [1:0 0:0 32 0] [19 0] 0 0
s 0.739919227 _1_ RTR  --- 58 ack 40 [0 0 0 0] ------- [1:0 0:0 30 0] [19 0] 0 0
r 0.741823827 _0_ AGT  --- 58 ack 40 [13a 0 1 800] ------- [1:0 0:0 30 0] [19 0] 1 0
s 0.741823827 _0_ AGT  --- 59 tcp 1040 [0 0 0 0] ------- [0:0 1:0 32 0] [39 0] 0 0
r 0.741823827 _0_ RTR  --- 59 tcp 1040 [0 0 0 0] ------- [0:0 1:0 32 0] [39 0] 0 0
s 0.741823827 _0_ RTR  --- 59 tcp 1040 [0 0 0 0] ------- [0:0 1:0 30 1] [39 0] 0 0
r 0.751888427 _1_ AGT  --- 33 tcp 1040 [13a 1 0 800] ------- [0:0 1:0 30 1] [20 0] 1 0
s 0.751888427 _1_ AGT  --- 60 ack 40 [0 0 0 0] ------- [1:0 0:0 32 0] [20 0] 0 0
r 0.751888427 _1_ RTR  --- 60 ack 40 [0 0 0 0] ------- [1:0 0:0 32 0] [20 0] 0 0
s 0.751888427 _1_ RTR  --- 60 ack 40 [0 0 0 0] ------- [1:0 0:0 30 0] [20 0] 0 0
r 0.753953027 _0_ AGT  --- 60 ack 40 [13a 0 1 800] ------- [1:0 0:0 30 0] [20 0] 1 0
s 0.753953027 _0_ AGT  --- 61 tcp 1040 [0 0 0 0] ------- [0:0 1:0 32 0] [40 0] 0 0
r 0.753953027 _0_ RTR  --- 61 tcp 1040 [0 0 0 0] ------- [0:0 1:0 32 0] [40 0] 0 0
s 0.753953027 _0_ RTR  --- 61 tcp 1040 [0 0 0 0] ------- [0:0 1:0 30 1] [40 0] 0 0
r 0.763837627 _1_ AGT  --- 35 tcp 1040 [13a 1 0 800] ------- [0:0 1:0 30 1] [21 0] 1 0
s 0.763837627 _1_ AGT  --- 62 ack 40 [0 0 0 0] ------- [1:0 0:0 32 0] [21 0] 0 0
r 0.763837627 _1_ RTR  --- 62 ack 40 [0 0 0 0] ------- [1:0 0:0 32 0] [21 0] 0 0
s 0.763837627 _1_ RTR  --- 62 ack 40 [0 0 0 0] ------- [1:0 0:0 30 0] [21 0] 0 0
r 0.773682427 _1_ AGT  --- 36 tcp 1040 [13a 1 0 800] ------- [0:0 1:0 30 1] [22 0] 1 0
s 0.773682427 _1_ AGT  --- 63 ack 40 [0 0 0 0] ------- [1:0 0:0 32 0] [22 0] 0 0
r 0.773682427 _1_ RTR  --- 63 ack 40 [0 0 0 0] ------- [1:0 0:0 32 0] [22 0] 0 0
s 0.773682427 _1_ RTR  --- 63 ack 40 [0 0 0 0] ------- [1:0 0:0 30 0] [22 0] 0 0
r 0.775707027 _0_ AGT  --- 62 ack 40 [13a 0 1 800] ------- [1:0 0:0 30 0] [21 0] 1 0
s 0.775707027 _0_ AGT  --- 64 tcp 1040 [0 0 0 0] ------- [0:0 1:0 32 0] [41 0] 0 0
r 0.775707027 _0_ RTR  --- 64 tcp 1040 [0 0 0 0] ------- [0:0 1:0 32 0] [41 0] 0 0
s 0.775707027 _0_ RTR  --- 64 tcp 1040 [0 0 0 0] ------- [0:0 1:0 30 1] [41 0] 0 0
r 0.777771827 _0_ AGT  --- 63 ack 40 [13a 0 1 800] ------- [1:0 0:0 30 0] [22 0] 1 0
s 0.777771827 _0_ AGT  --- 65 tcp 1040 [0 0 0 0] ------- [0:0 1:0 32 0] [42 0] 0 0
r 0.777771827 _0_ RTR  --- 65 tcp 1040 [0 0 0 0] ------- [0:0 1:0 32 0] [42 0] 0 0
s 0.777771827 _0_ RTR  --- 65 tcp 1040 [0 0 0 0] ------- [0:0 1:0 30 1] [42 0] 0 0
r 0.787656427 _1_ AGT  --- 37 tcp 1040 [13a 1 0 800] ------- [0:0 1:0 30 1] [23 0] 1 0
s 0.787656427 _1_ AGT  --- 66 ack 40 [0 0 0 0] ------- [1:0 0:0 32 0] [23 0] 0 0
r 0.787656427 _1_ RTR  --- 66 ack 40 [0 0 0 0] ------- [1:0 0:0 32 0] [23 0] 0 0
s 0.787656427 _1_ RTR  --- 66 ack 40 [0 0 0 0] ------- [1:0 0:0 30 0] [23 0] 0 0
r 0.789541027 _0_ AGT  --- 66 ack 40 [13a 0 1 800] ------- [1:0 0:0 30 0] [23 0] 1 0
s 0.789541027 _0_ AGT  --- 67 tcp 1040 [0 0 0 0] ------- [0:0 1:0 32 0] [43 0] 0 0
r 0.789541027 _0_ RTR  --- 67 tcp 1040 [0 0 0 0] ------- [0:0 1:0 32 0] [43 0] 0 0
s 0.789541027 _0_ RTR  --- 67 tcp 1040 [0 0 0 0] ------- [0:0 1:0 30 1] [43 0] 0 0
r 0.799605627 _1_ AGT  --- 38 tcp 1040 [13a 1 0 800] ------- [0:0 1:0 30 1] [24 0] 1 0
s 0.799605627 _1_ AGT  --- 68 ack 40 [0 0 0 0] ------- [1:0 0:0 32 0] [24 0] 0 0
r 0.799605627 _1_ RTR  --- 68 ack 40 [0 0 0 0] ------- [1:0 0:0 32 0] [24 0] 0 0
s 0.799605627 _1_ RTR  --- 68 ack 40 [0 0 0 0] ------- [1:0 0:0 30 0] [24 0] 0 0
r 0.809550427 _1_ AGT  --- 39 tcp 1040 [13a 1 0 800] ------- [0:0 1:0 30 1] [25 0] 1 0
s 0.809550427 _1_ AGT  --- 69 ack 40 [0 0 0 0] ------- [1:0 0:0 32 0] [25 0] 0 0
r 0.809550427 _1_ RTR  --- 69 ack 40 [0 0 0 0] ------- [1:0 0:0 32 0] [25 0] 0 0
s 0.809550427 _1_ RTR  --- 69 ack 40 [0 0 0 0] ------- [1:0 0:0 30 0] [25 0] 0 0
r 0.819575227 _1_ AGT  --- 40 tcp 1040 [13a 1 0 800] ------- [0:0 1:0 30 1] [26 0] 1 0
s 0.819575227 _1_ AGT  --- 70 ack 40 [0 0 0 0] ------- [1:0 0:0 32 0] [26 0] 0 0
r 0.819575227 _1_ RTR  --- 70 ack 40 [0 0 0 0] ------- [1:0 0:0 32 0] [26 0] 0 0
s 0.819575227 _1_ RTR  --- 70 ack 40 [0 0 0 0] ------- [1:0 0:0 30 0] [26 0] 0 0
r 0.829500027 _1_ AGT  --- 45 tcp 1040 [13a 1 0 800] ------- [0:0 1:0 30 1] [27 0] 1 0
s 0.829500027 _1_ AGT  --- 71 ack 40 [0 0 0 0] ------- [1:0 0:0 32 0] [27 0] 0 0
r 0.829500027 _1_ RTR  --- 71 ack 40 [0 0 0 0] ------- [1:0 0:0 32 0] [27 0] 0 0
s 0.829500027 _1_ RTR  --- 71 ack 40 [0 0 0 0] ------- [1:0 0:0 30 0] [27 0] 0 0
r 0.831364627 _0_ AGT  --- 68 ack 40 [13a 0 1 800] ------- [1:0 0:0 30 0] [24 0] 1 0
s 0.831364627 _0_ AGT  --- 72 tcp 1040 [0 0 0 0] ------- [0:0 1:0 32 0] [44 0] 0 0
r 0.831364627 _0_ RTR  --- 72 tcp 1040 [0 0 0 0] ------- [0:0 1:0 32 0] [44 0] 0 0
s 0.831364627 _0_ RTR  --- 72 tcp 1040 [0 0 0 0] ------- [0:0 1:0 30 1] [44 0] 0 0
r 0.841229227 _1_ AGT  --- 46 tcp 1040 [13a 1 0 800] ------- [0:0 1:0 30 1] [28 0] 1 0
s 0.841229227 _1_ AGT  --- 73 ack 40 [0 0 0 0] ------- [1:0 0:0 32 0] [28 0] 0 0
r 0.841229227 _1_ RTR  --- 73 ack 40 [0 0 0 0] ------- [1:0 0:0 32 0] [28 0] 0 0
s 0.841229227 _1_ RTR  --- 73 ack 40 [0 0 0 0] ------- [1:0 0:0 30 0] [28 0] 0 0
r 0.851254027 _1_ AGT  --- 47 tcp 1040 [13a 1 0 800] ------- [0:0 1:0 30 1] [29 0] 1 0
s 0.851254027 _1_ AGT  --- 74 ack 40 [0 0 0 0] ------- [1:0 0:0 32 0] [29 0] 0 0
r 0.851254027 _1_ RTR  --- 74 ack 40 [0 0 0 0] ------- [1:0 0:0 32 0] [29 0] 0 0
s 0.851254027 _1_ RTR  --- 74 ack 40 [0 0 0 0] ------- [1:0 0:0 30 0] [29 0] 0 0
r 0.853098627 _0_ AGT  --- 69 ack 40 [13a 0 1 800] ------- [1:0 0:0 30 0] [25 0] 1 0
s 0.853098627 _0_ AGT  --- 75 tcp 1040 [0 0 0 0] ------- [0:0 1:0 32 0] [45 0] 0 0
r 0.853098627 _0_ RTR  --- 75 tcp 1040 [0 0 0 0] ------- [0:0 1:0 32 0] [45 0] 0 0
s 0.853098627 _0_ RTR  --- 75 tcp 1040 [0 0 0 0] ------- [0:0 1:0 30 1] [45 0] 0 0
r 0.862963227 _1_ AGT  --- 48 tcp 1040 [13a 1 0 800] ------- [0:0 1:0 30 1] [30 0] 1 0
s 0.862963227 _1_ AGT  --- 76 ack 40 [0 0 0 0] ------- [1:0 0:0 32 0] [30 0] 0 0
r 0.862963227 _1_ RTR  --- 76 ack 40 [0 0 0 0] ------- [1:0 0:0 32 0] [30 0] 0 0
s 0.862963227 _1_ RTR  --- 76 ack 40 [0 0 0 0] ------- [1:0 0:0 30 0] [30 0] 0 0
r 0.865087827 _0_ AGT  --- 70 ack 40 [13a 0 1 800] ------- [1:0 0:0 30 0] [26 0] 1 0
s 0.865087827 _0_ AGT  --- 77 tcp 1040 [0 0 0 0] ------- [0:0 1:0 32 0] [46 0] 0 0
r 0.865087827 _0_ RTR  --- 77 tcp 1040 [0 0 0 0] ------- [0:0 1:0 32 0] [46 0] 0 0
s 0.865087827 _0_ RTR  --- 77 tcp 1040 [0 0 0 0] ------- [0:0 1:0 30 1] [46 0] 0 0
r 0.867032627 _0_ AGT  --- 71 ack 40 [13a 0 1 800] ------- [1:0 0:0 30 0] [27 0] 1 0
s 0.867032627 _0_ AGT  --- 78 tcp 1040 [0 0 0 0] ------- [0:0 1:0 32 0] [47 0] 0 0
r 0.867032627 _0_ RTR  --- 78 tcp 1040 [0 0 0 0] ------- [0:0 1:0 32 0] [47 0] 0 0
s 0.867032627 _0_ RTR  --- 78 tcp 1040 [0 0 0 0] ------- [0:0 1:0 30 1] [47 0] 0 0
r 0.868917427 _0_ AGT  --- 73 ack 40 [13a 0 1 800] ------- [1:0 0:0 30 0] [28 0] 1 0
s 0.868917427 _0_ AGT  --- 79 tcp 1040 [0 0 0 0] ------- [0:0 1:0 32 0] [48 0] 0 0
r 0.868917427 _0_ RTR  --- 79 tcp 1040 [0 0 0 0] ------- [0:0 1:0 32 0] [48 0] 0 0
s 0.868917427 _0_ RTR  --- 79 tcp 1040 [0 0 0 0] ------- [0:0 1:0 30 1] [48 0] 0 0
r 0.878882027 _1_ AGT  --- 49 tcp 1040 [13a 1 0 800] ------- [0:0 1:0 30 1] [31 0] 1 0
s 0.878882027 _1_ AGT  --- 80 ack 40 [0 0 0 0] ------- [1:0 0:0 32 0] [31 0] 0 0
r 0.878882027 _1_ RTR  --- 80 ack 40 [0 0 0 0] ------- [1:0 0:0 32 0] [31 0] 0 0
s 0.878882027 _1_ RTR  --- 80 ack 40 [0 0 0 0] ------- [1:0 0:0 30 0] [31 0] 0 0
r 0.888826827 _1_ AGT  --- 50 tcp 1040 [13a 1 0 800] ------- [0:0 1:0 30 1] [32 0] 1 0
s 0.888826827 _1_ AGT  --- 81 ack 40 [0 0 0 0] ------- [1:0 0:0 32 0] [32 0] 0 0
r 0.888826827 _1_ RTR  --- 81 ack 40 [0 0 0 0] ------- [1:0 0:0 32 0] [32 0] 0 0
s 0.888826827 _1_ RTR  --- 81 ack 40 [0 0 0 0] ------- [1:0 0:0 30 0] [32 0] 0 0
r 0.890971427 _0_ AGT  --- 74 ack 40 [13a 0 1 800] ------- [1:0 0:0 30 0] [29 0] 1 0
s 0.890971427 _0_ AGT  --- 82 tcp 1040 [0 0 0 0] ------- [0:0 1:0 32 0] [49 0] 0 0
r 0.890971427 _0_ RTR  --- 82 tcp 1040 [0 0 0 0] ------- [0:0 1:0 32 0] [49 0] 0 0
s 0.890971427 _0_ RTR  --- 82 tcp 1040 [0 0 0 0] ------- [0:0 1:0 30 1] [49 0] 0 0
r 0.901096027 _1_ AGT  --- 52 tcp 1040 [13a 1 0 800] ------- [0:0 1:0 30 1] [33 0] 1 0
s 0.901096027 _1_ AGT  --- 83 ack 40 [0 0 0 0] ------- [1:0 0:0 32 0] [33 0] 0 0
r 0.901096027 _1_ RTR  --- 83 ack 40 [0 0 0 0] ------- [1:0 0:0 32 0] [33 0] 0 0
s 0.901096027 _1_ RTR  --- 83 ack 40 [0 0 0 0] ------- [1:0 0:0 30 0] [33 0] 0 0
r 0.903080627 _0_ AGT  --- 76 ack 40 [13a 0 1 800] ------- [1:0 0:0 30 0] [30 0] 1 0
s 0.903080627 _0_ AGT  --- 84 tcp 1040 [0 0 0 0] ------- [0:0 1:0 32 0] [50 0] 0 0
r 0.903080627 _0_ RTR  --- 84 tcp 1040 [0 0 0 0] ------- [0:0 1:0 32 0] [50 0] 0 0
s 0.903080627 _0_ RTR  --- 84 tcp 1040 [0 0 0 0] ------- [0:0 1:0 30 1] [50 0] 0 0
r 0.905205427 _0_ AGT  --- 80 ack 40 [13a 0 1 800] ------- [1:0 0:0 30 0] [31 0] 1 0
s 0.905205427 _0_ AGT  --- 85 tcp 1040 [0 0 0 0] ------- [0:0 1:0 32 0] [51 0] 0 0
r 0.905205427 _0_ RTR  --- 85 tcp 1040 [0 0 0 0] ------- [0:0 1:0 32 0] [51 0] 0 0
s 0.905205427 _0_ RTR  --- 85 tcp 1040 [0 0 0 0] ------- [0:0 1:0 30 1] [51 0] 0 0
r 0.915110027 _1_ AGT  --- 53 tcp 1040 [13a 1 0 800] ------- [0:0 1:0 30 1] [34 0] 1 0
s 0.915110027 _1_ AGT  --- 86 ack 40 [0 0 0 0] ------- [1:0 0:0 32 0] [34 0] 0 0
r 0.915110027 _1_ RTR  --- 86 ack 40 [0 0 0 0] ------- [1:0 0:0 32 0] [34 0] 0 0
s 0.915110027 _1_ RTR  --- 86 ack 40 [0 0 0 0] ------- [1:0 0:0 30 0] [34 0] 0 0
r 0.917174627 _0_ AGT  --- 81 ack 40 [13a 0 1 800] ------- [1:0 0:0 30 0] [32 0] 1 0
s 0.917174627 _0_ AGT  --- 87 tcp 1040 [0 0 0 0] ------- [0:0 1:0 32 0] [52 0] 0 0
r 0.917174627 _0_ RTR  --- 87 tcp 1040 [0 0 0 0] ------- [0:0 1:0 32 0] [52 0] 0 0
s 0.917174627 _0_ RTR  --- 87 tcp 1040 [0 0 0 0] ------- [0:0 1:0 30 1] [52 0] 0 0
r 0.927059227 _1_ AGT  --- 54 tcp 1040 [13a 1 0 800] ------- [0:0 1:0 30 1] [35 0] 1 0
s 0.927059227 _1_ AGT  --- 88 ack 40 [0 0 0 0] ------- [1:0 0:0 32 0] [35 0] 0 0
r 0.927059227 _1_ RTR  --- 88 ack 40 [0 0 0 0] ------- [1:0 0:0 32 0] [35 0] 0 0
s 0.927059227 _1_ RTR  --- 88 ack 40 [0 0 0 0] ------- [1:0 0:0 30 0] [35 0] 0 0
r 0.936924027 _1_ AGT  --- 55 tcp 1040 [13a 1 0 800] ------- [0:0 1:0 30 1] [36 0] 1 0
s 0.936924027 _1_ AGT  --- 89 ack 40 [0 0 0 0] ------- [1:0 0:0 32 0] [36 0] 0 0
r 0.936924027 _1_ RTR  --- 89 ack 40 [0 0 0 0] ------- [1:0 0:0 32 0] [36 0] 0 0
s 0.936924027 _1_ RTR  --- 89 ack 40 [0 0 0 0] ------- [1:0 0:0 30 0] [36 0] 0 0
r 0.938988627 _0_ AGT  --- 83 ack 40 [13a 0 1 800] ------- [1:0 0:0 30 0] [33 0] 1 0