n -t 0 -s 0 -S DLABEL -l "tcp0" -L ""
n -t 0 -s 1 -S DLABEL -l "sink1/tcp1" -L ""
n -t 0 -s 2 -S DLABEL -l "sink2" -L ""
n -t 0 -s 3 -S DLABEL -l "sink2/tcp2" -L ""
V -t * -v 1.0a5 -a 0
W -t * -x 2000 -y 2000
A -t * -n 1 -p 0 -o 0x7fffffff -c 30 -a 1
A -t * -h 1 -m 1073741823 -s 0
n -t 0.010000 -s 0 -x 60.000000 -y 60.000000 -U -0.000000 -V -0.000000 -T 0.000000
n -t 0.010000 -s 1 -x 120.000000 -y 60.000000 -U 0.000000 -V 0.000000 -T 0.000000
n -t 0.010000 -s 2 -x 60.000000 -y 100.000000 -U 0.000000 -V 0.000000 -T 0.000000
n -t 0.010000 -s 3 -x 120.000000 -y 120.000000 -U -0.000000 -V -0.000000 -T 0.000000
+ -t 0.500000000 -s 0 -d -1 -p tcp -e 40 -c 2 -a 0 -i 0 -k AGT 
- -t 0.500000000 -s 0 -d -1 -p tcp -e 40 -c 2 -a 0 -i 0 -k AGT
h -t 0.500000000 -s 0 -d -1 -p tcp -e 40 -c 2 -a 0 -i 0 -k AGT
+ -t 0.500000000 -s 0 -d -1 -p AODV -e 48 -c 2 -a 0 -i 0 -k RTR 
- -t 0.500000000 -s 0 -d -1 -p AODV -e 48 -c 2 -a 0 -i 0 -k RTR
h -t 0.500000000 -s 0 -d -1 -p AODV -e 48 -c 2 -a 0 -i 0 -k RTR
r -t 0.501508133 -s 2 -d -1 -p AODV -e 48 -c 2 -a 0 -i 0 -k RTR
r -t 0.501508200 -s 1 -d -1 -p AODV -e 48 -c 2 -a 0 -i 0 -k RTR
+ -t 0.501508200 -s 1 -d 0 -p AODV -e 44 -c 2 -a 0 -i 0 -k RTR 
- -t 0.501508200 -s 1 -d 0 -p AODV -e 44 -c 2 -a 0 -i 0 -k RTR
h -t 0.501508200 -s 1 -d 0 -p AODV -e 44 -c 2 -a 0 -i 0 -k RTR
r -t 0.501508283 -s 3 -d -1 -p AODV -e 48 -c 2 -a 0 -i 0 -k RTR
+ -t 0.505907600 -s 0 -d 1 -p tcp -e 40 -c 2 -a 0 -i 0 -k RTR 
- -t 0.505907600 -s 0 -d 1 -p tcp -e 40 -c 2 -a 0 -i 0 -k RTR
h -t 0.505907600 -s 0 -d 1 -p tcp -e 40 -c 2 -a 0 -i 0 -k RTR
+ -t 0.505919867 -s 2 -d -1 -p AODV -e 48 -c 2 -a 0 -i 0 -k RTR 
- -t 0.505919867 -s 2 -d -1 -p AODV -e 48 -c 2 -a 0 -i 0 -k RTR
h -t 0.505919867 -s 2 -d -1 -p AODV -e 48 -c 2 -a 0 -i 0 -k RTR
r -t 0.507912200 -s 1 -d 1 -p tcp -e 40 -c 2 -a 0 -i 0 -k AGT
+ -t 0.507912200 -s 1 -d -1 -p ack -e 40 -c 2 -a 0 -i 1 -k AGT 
- -t 0.507912200 -s 1 -d -1 -p ack -e 40 -c 2 -a 0 -i 1 -k AGT
h -t 0.507912200 -s 1 -d -1 -p ack -e 40 -c 2 -a 0 -i 1 -k AGT
+ -t 0.507912200 -s 1 -d 0 -p ack -e 40 -c 2 -a 0 -i 1 -k RTR 
- -t 0.507912200 -s 1 -d 0 -p ack -e 40 -c 2 -a 0 -i 1 -k RTR
h -t 0.507912200 -s 1 -d 0 -p ack -e 40 -c 2 -a 0 -i 1 -k RTR
+ -t 0.509499837 -s 3 -d -1 -p AODV -e 48 -c 2 -a 0 -i 0 -k RTR 
- -t 0.509499837 -s 3 -d -1 -p AODV -e 48 -c 2 -a 0 -i 0 -k RTR
h -t 0.509499837 -s 3 -d -1 -p AODV -e 48 -c 2 -a 0 -i 0 -k RTR
r -t 0.509836800 -s 0 -d 0 -p ack -e 40 -c 2 -a 0 -i 1 -k AGT
+ -t 0.509836800 -s 0 -d -1 -p tcp -e 1040 -c 2 -a 0 -i 2 -k AGT 
- -t 0.509836800 -s 0 -d -1 -p tcp -e 1040 -c 2 -a 0 -i 2 -k AGT
h -t 0.509836800 -s 0 -d -1 -p tcp -e 1040 -c 2 -a 0 -i 2 -k AGT
+ -t 0.509836800 -s 0 -d -1 -p tcp -e 1040 -c 2 -a 0 -i 3 -k AGT 
- -t 0.509836800 -s 0 -d -1 -p tcp -e 1040 -c 2 -a 0 -i 3 -k AGT
h -t 0.509836800 -s 0 -d -1 -p tcp -e 1040 -c 2 -a 0 -i 3 -k AGT
+ -t 0.509836800 -s 0 -d 1 -p tcp -e 1040 -c 2 -a 0 -i 2 -k RTR 
- -t 0.509836800 -s 0 -d 1 -p tcp -e 1040 -c 2 -a 0 -i 2 -k RTR
h -t 0.509836800 -s 0 -d 1 -p tcp -e 1040 -c 2 -a 0 -i 2 -k RTR
+ -t 0.509836800 -s 0 -d 1 -p tcp -e 1040 -c 2 -a 0 -i 3 -k RTR 
- -t 0.509836800 -s 0 -d 1 -p tcp -e 1040 -c 2 -a 0 -i 3 -k RTR
h -t 0.509836800 -s 0 -d 1 -p tcp -e 1040 -c 2 -a 0 -i 3 -k RTR
r -t 0.511089283 -s 1 -d -1 -p AODV -e 48 -c 2 -a 0 -i 0 -k RTR
r -t 0.511089294 -s 2 -d -1 -p AODV -e 48 -c 2 -a 0 -i 0 -k RTR
r -t 0.511089366 -s 0 -d -1 -p AODV -e 48 -c 2 -a 0 -i 0 -k RTR
r -t 0.512067427 -s 0 -d -1 -p AODV -e 48 -c 2 -a 0 -i 0 -k RTR
r -t 0.512067504 -s 3 -d -1 -p AODV -e 48 -c 2 -a 0 -i 0 -k RTR
r -t 0.512067534 -s 1 -d -1 -p AODV -e 48 -c 2 -a 0 -i 0 -k RTR
r -t 0.521618027 -s 1 -d 1 -p tcp -e 1040 -c 2 -a 0 -i 2 -k AGT
+ -t 0.521618027 -s 1 -d -1 -p ack -e 40 -c 2 -a 0 -i 4 -k AGT 
- -t 0.521618027 -s 1 -d -1 -p ack -e 40 -c 2 -a 0 -i 4 -k AGT
h -t 0.521618027 -s 1 -d -1 -p ack -e 40 -c 2 -a 0 -i 4 -k AGT
+ -t 0.521618027 -s 1 -d 0 -p ack -e 40 -c 2 -a 0 -i 4 -k RTR 
- -t 0.521618027 -s 1 -d 0 -p ack -e 40 -c 2 -a 0 -i 4 -k RTR
h -t 0.521618027 -s 1 -d 0 -p ack -e 40 -c 2 -a 0 -i 4 -k RTR
r -t 0.531682827 -s 1 -d 1 -p tcp -e 1040 -c 2 -a 0 -i 3 -k AGT
+ -t 0.531682827 -s 1 -d -1 -p ack -e 40 -c 2 -a 0 -i 5 -k AGT 
- -t 0.531682827 -s 1 -d -1 -p ack -e 40 -c 2 -a 0 -i 5 -k AGT
h -t 0.531682827 -s 1 -d -1 -p ack -e 40 -c 2 -a 0 -i 5 -k AGT
+ -t 0.531682827 -s 1 -d 0 -p ack -e 40 -c 2 -a 0 -i 5 -k RTR 
- -t 0.531682827 -s 1 -d 0 -p ack -e 40 -c 2 -a 0 -i 5 -k RTR
h -t 0.531682827 -s 1 -d 0 -p ack -e 40 -c 2 -a 0 -i 5 -k RTR
r -t 0.533647427 -s 0 -d 0 -p ack -e 40 -c 2 -a 0 -i 4 -k AGT
+ -t 0.533647427 -s 0 -d -1 -p tcp -e 1040 -c 2 -a 0 -i 6 -k AGT 
- -t 0.533647427 -s 0 -d -1 -p tcp -e 1040 -c 2 -a 0 -i 6 -k AGT
h -t 0.533647427 -s 0 -d -1 -p tcp -e 1040 -c 2 -a 0 -i 6 -k AGT
+ -t 0.533647427 -s 0 -d -1 -p tcp -e 1040 -c 2 -a 0 -i 7 -k AGT 
- -t 0.533647427 -s 0 -d -1 -p tcp -e 1040 -c 2 -a 0 -i 7 -k AGT
h -t 0.533647427 -s 0 -d -1 -p tcp -e 1040 -c 2 -a 0 -i 7 -k AGT
+ -t 0.533647427 -s 0 -d 1 -p tcp -e 1040 -c 2 -a 0 -i 6 -k RTR 
- -t 0.533647427 -s 0 -d 1 -p tcp -e 1040 -c 2 -a 0 -i 6 -k RTR
h -t 0.533647427 -s 0 -d 1 -p tcp -e 1040 -c 2 -a 0 -i 6 -k RTR
+ -t 0.533647427 -s 0 -d 1 -p tcp -e 1040 -c 2 -a 0 -i 7 -k RTR 
- -t 0.533647427 -s 0 -d 1 -p tcp -e 1040 -c 2 -a 0 -i 7 -k RTR
h -t 0.533647427 -s 0 -d 1 -p tcp -e 1040 -c 2 -a 0 -i 7 -k RTR
r -t 0.543492027 -s 1 -d 1 -p tcp -e 1040 -c 2 -a 0 -i 6 -k AGT
+ -t 0.543492027 -s 1 -d -1 -p ack -e 40 -c 2 -a 0 -i 8 -k AGT 
- -t 0.543492027 -s 1 -d -1 -p ack -e 40 -c 2 -a 0 -i 8 -k AGT
h -t 0.543492027 -s 1 -d -1 -p ack -e 40 -c 2 -a 0 -i 8 -k AGT
+ -t 0.543492027 -s 1 -d 0 -p ack -e 40 -c 2 -a 0 -i 8 -k RTR 
- -t 0.543492027 -s 1 -d 0 -p ack -e 40 -c 2 -a 0 -i 8 -k RTR
h -t 0.543492027 -s 1 -d 0 -p ack -e 40 -c 2 -a 0 -i 8 -k RTR
r -t 0.553656827 -s 1 -d 1 -p tcp -e 1040 -c 2 -a 0 -i 7 -k AGT
+ -t 0.553656827 -s 1 -d -1 -p ack -e 40 -c 2 -a 0 -i 9 -k AGT 
- -t 0.553656827 -s 1 -d -1 -p ack -e 40 -c 2 -a 0 -i 9 -k AGT
h -t 0.553656827 -s 1 -d -1 -p ack -e 40 -c 2 -a 0 -i 9 -k AGT
+ -t 0.553656827 -s 1 -d 0 -p ack -e 40 -c 2 -a 0 -i 9 -k RTR 
- -t 0.553656827 -s 1 -d 0 -p ack -e 40 -c 2 -a 0 -i 9 -k RTR
h -t 0.553656827 -s 1 -d 0 -p ack -e 40 -c 2 -a 0 -i 9 -k RTR
r -t 0.555601427 -s 0 -d 0 -p ack -e 40 -c 2 -a 0 -i 5 -k AGT
+ -t 0.555601427 -s 0 -d -1 -p tcp -e 1040 -c 2 -a 0 -i 10 -k AGT 
- -t 0.555601427 -s 0 -d -1 -p tcp -e 1040 -c 2 -a 0 -i 10 -k AGT
h -t 0.555601427 -s 0 -d -1 -p tcp -e 1040 -c 2 -a 0 -i 10 -k AGT
+ -t 0.555601427 -s 0 -d -1 -p tcp -e 1040 -c 2 -a 0 -i 11 -k AGT 
- -t 0.555601427 -s 0 -d -1 -p tcp -e 1040 -c 2 -a 0 -i 11 -k AGT
h -t 0.555601427 -s 0 -d -1 -p tcp -e 1040 -c 2 -a 0 -i 11 -k AGT
+ -t 0.555601427 -s 0 -d 1 -p tcp -e 1040 -c 2 -a 0 -i 10 -k RTR 
- -t 0.555601427 -s 0 -d 1 -p tcp -e 1040 -c 2 -a 0 -i 10 -k RTR
h -t 0.555601427 -s 0 -d 1 -p tcp -e 1040 -c 2 -a 0 -i 10 -k RTR
+ -t 0.555601427 -s 0 -d 1 -p tcp -e 1040 -c 2 -a 0 -i 11 -k RTR 
- -t 0.555601427 -s 0 -d 1 -p tcp -e 1040 -c 2 -a 0 -i 11 -k RTR
h -t 0.555601427 -s 0 -d 1 -p tcp -e 1040 -c 2 -a 0 -i 11 -k RTR
r -t 0.567332427 -s 1 -d 1 -p tcp -e 1040 -c 2 -a 0 -i 10 -k AGT
+ -t 0.567332427 -s 1 -d -1 -p ack -e 40 -c 2 -a 0 -i 12 -k AGT 
- -t 0.567332427 -s 1 -d -1 -p ack -e 40 -c 2 -a 0 -i 12 -k AGT
h -t 0.567332427 -s 1 -d -1 -p ack -e 40 -c 2 -a 0 -i 12 -k AGT
+ -t 0.567332427 -s 1 -d 0 -p ack -e 40 -c 2 -a 0 -i 12 -k RTR 
- -t 0.567332427 -s 1 -d 0 -p ack -e 40 -c 2 -a 0 -i 12 -k RTR
h -t 0.567332427 -s 1 -d 0 -p ack -e 40 -c 2 -a 0 -i 12 -k RTR
r -t 0.569237027 -s 0 -d 0 -p ack -e 40 -c 2 -a 0 -i 8 -k AGT
+ -t 0.569237027 -s 0 -d -1 -p tcp -e 1040 -c 2 -a 0 -i 13 -k AGT 
- -t 0.569237027 -s 0 -d -1 -p tcp -e 1040 -c 2 -a 0 -i 13 -k AGT
h -t 0.569237027 -s 0 -d -1 -p tcp -e 1040 -c 2 -a 0 -i 13 -k AGT
+ -t 0.569237027 -s 0 -d -1 -p tcp -e 1040 -c 2 -a 0 -i 14 -k AGT 
- -t 0.569237027 -s 0 -d -1 -p tcp -e 1040 -c 2 -a 0 -i 14 -k AGT
h -t 0.569237027 -s 0 -d -1 -p tcp -e 1040 -c 2 -a 0 -i 14 -k AGT
+ -t 0.569237027 -s 0 -d 1 -p tcp -e 1040 -c 2 -a 0 -i 13 -k RTR 
- -t 0.569237027 -s 0 -d 1 -p tcp -e 1040 -c 2 -a 0 -i 13 -k RTR
h -t 0.569237027 -s 0 -d 1 -p tcp -e 1040 -c 2 -a 0 -i 13 -k RTR
+ -t 0.569237027 -s 0 -d 1 -p tcp -e 1040 -c 2 -a 0 -i 14 -k RTR 
- -t 0.569237027 -s 0 -d 1 -p tcp -e 1040 -c 2 -a 0 -i 14 -k RTR
h -t 0.569237027 -s 0 -d 1 -p tcp -e 1040 -c 2 -a 0 -i 14 -k RTR
r -t 0.579241627 -s 1 -d 1 -p tcp -e 1040 -c 2 -a 0 -i 11 -k AGT
+ -t 0.579241627 -s 1 -d -1 -p ack -e 40 -c 2 -a 0 -i 15 -k AGT 
- -t 0.579241627 -s 1 -d -1 -p ack -e 40 -c 2 -a 0 -i 15 -k AGT
h -t 0.579241627 -s 1 -d -1 -p ack -e 40 -c 2 -a 0 -i 15 -k AGT
+ -t 0.579241627 -s 1 -d 0 -p ack -e 40 -c 2 -a 0 -i 15 -k RTR 
- -t 0.579241627 -s 1 -d 0 -p ack -e 40 -c 2 -a 0 -i 15 -k RTR
h -t 0.579241627 -s 1 -d 0 -p ack -e 40 -c 2 -a 0 -i 15 -k RTR
r -t 0.589246427 -s 1 -d 1 -p tcp -e 1040 -c 2 -a 0 -i 13 -k AGT
+ -t 0.589246427 -s 1 -d -1 -p ack -e 40 -c 2 -a 0 -i 16 -k AGT 
- -t 0.589246427 -s 1 -d -1 -p ack -e 40 -c 2 -a 0 -i 16 -k AGT
h -t 0.589246427 -s 1 -d -1 -p ack -e 40 -c 2 -a 0 -i 16 -k AGT
+ -t 0.589246427 -s 1 -d 0 -p ack -e 40 -c 2 -a 0 -i 16 -k RTR 
- -t 0.589246427 -s 1 -d 0 -p ack -e 40 -c 2 -a 0 -i 16 -k RTR
h -t 0.589246427 -s 1 -d 0 -p ack -e 40 -c 2 -a 0 -i 16 -k RTR
r -t 0.591171027 -s 0 -d 0 -p ack -e 40 -c 2 -a 0 -i 9 -k AGT
+ -t 0.591171027 -s 0 -d -1 -p tcp -e 1040 -c 2 -a 0 -i 17 -k AGT 
- -t 0.591171027 -s 0 -d -1 -p tcp -e 1040 -c 2 -a 0 -i 17 -k AGT
h -t 0.591171027 -s 0 -d -1 -p tcp -e 1040 -c 2 -a 0 -i 17 -k AGT
+ -t 0.591171027 -s 0 -d -1 -p tcp -e 1040 -c 2 -a 0 -i 18 -k AGT 
- -t 0.591171027 -s 0 -d -1 -p tcp -e 1040 -c 2 -a 0 -i 18 -k AGT
h -t 0.591171027 -s 0 -d -1 -p tcp -e 1040 -c 2 -a 0 -i 18 -k AGT
+ -t 0.591171027 -s 0 -d 1 -p tcp -e 1040 -c 2 -a 0 -i 17 -k RTR 
- -t 0.591171027 -s 0 -d 1 -p tcp -e 1040 -c 2 -a 0 -i 17 -k RTR
h -t 0.591171027 -s 0 -d 1 -p tcp -e 1040 -c 2 -a 0 -i 17 -k RTR
+ -t 0.591171027 -s 0 -d 1 -p tcp -e 1040 -c 2 -a 0 -i 18 -k RTR 
- -t 0.591171027 -s 0 -d 1 -p tcp -e 1040 -c 2 -a 0 -i 18 -k RTR
h -t 0.591171027 -s 0 -d 1 -p tcp -e 1040 -c 2 -a 0 -i 18 -k RTR
r -t 0.593395827 -s 0 -d 0 -p ack -e 40 -c 2 -a 0 -i 12 -k AGT
+ -t 0.593395827 -s 0 -d -1 -p tcp -e 1040 -c 2 -a 0 -i 19 -k AGT 
- -t 0.593395827 -s 0 -d -1 -p tcp -e 1040 -c 2 -a 0 -i 19 -k AGT
h -t 0.593395827 -s 0 -d -1 -p tcp -e 1040 -c 2 -a 0 -i 19 -k AGT
+ -t 0.593395827 -s 0 -d -1 -p tcp -e 1040 -c 2 -a 0 -i 20 -k AGT 
- -t 0.593395827 -s 0 -d -1 -p tcp -e 1040 -c 2 -a 0 -i 20 -k AGT
h -t 0.593395827 -s 0 -d -1 -p tcp -e 1040 -c 2 -a 0 -i 20 -k AGT
+ -t 0.593395827 -s 0 -d 1 -p tcp -e 1040 -c 2 -a 0 -i 19 -k RTR 
- -t 0.593395827 -s 0 -d 1 -p tcp -e 1040 -c 2 -a 0 -i 19 -k RTR
h -t 0.593395827 -s 0 -d 1 -p tcp -e 1040 -c 2 -a 0 -i 19 -k RTR
+ -t 0.593395827 -s 0 -d 1 -p tcp -e 1040 -c 2 -a 0 -i 20 -k RTR 
- -t 0.593395827 -s 0 -d 1 -p tcp -e 1040 -c 2 -a 0 -i 20 -k RTR
h -t 0.593395827 -s 0 -d 1 -p tcp -e 1040 -c 2 -a 0 -i 20 -k RTR
r -t 0.603320427 -s 1 -d 1 -p tcp -e 1040 -c 2 -a 0 -i 14 -k AGT
+ -t 0.603320427 -s 1 -d -1 -p ack -e 40 -c 2 -a 0 -i 21 -k AGT 
- -t 0.603320427 -s 1 -d -1 -p ack -e 40 -c 2 -a 0 -i 21 -k AGT
h -t 0.603320427 -s 1 -d -1 -p ack -e 40 -c 2 -a 0 -i 21 -k AGT
+ -t 0.603320427 -s 1 -d 0 -p ack -e 40 -c 2 -a 0 -i 21 -k RTR 
- -t 0.603320427 -s 1 -d 0 -p ack -e 40 -c 2 -a 0 -i 21 -k RTR
h -t 0.603320427 -s 1 -d 0 -p ack -e 40 -c 2 -a 0 -i 21 -k RTR
r -t 0.613505227 -s 1 -d 1 -p tcp -e 1040 -c 2 -a 0 -i 17 -k AGT
+ -t 0.613505227 -s 1 -d -1 -p ack -e 40 -c 2 -a 0 -i 22 -k AGT 
- -t 0.613505227 -s 1 -d -1 -p ack -e 40 -c 2 -a 0 -i 22 -k AGT
h -t 0.613505227 -s 1 -d -1 -p ack -e 40 -c 2 -a 0 -i 22 -k AGT
+ -t 0.613505227 -s 1 -d 0 -p ack -e 40 -c 2 -a 0 -i 22 -k RTR 
- -t 0.613505227 -s 1 -d 0 -p ack -e 40 -c 2 -a 0 -i 22 -k RTR
h -t 0.613505227 -s 1 -d 0 -p ack -e 40 -c 2 -a 0 -i 22 -k RTR
r -t 0.623370027 -s 1 -d 1 -p tcp -e 1040 -c 2 -a 0 -i 18 -k AGT
+ -t 0.623370027 -s 1 -d -1 -p ack -e 40 -c 2 -a 0 -i 23 -k AGT 
- -t 0.623370027 -s 1 -d -1 -p ack -e 40 -c 2 -a 0 -i 23 -k AGT
h -t 0.623370027 -s 1 -d -1 -p ack -e 40 -c 2 -a 0 -i 23 -k AGT
+ -t 0.623370027 -s 1 -d 0 -p ack -e 40 -c 2 -a 0 -i 23 -k RTR 
- -t 0.623370027 -s 1 -d 0 -p ack -e 40 -c 2 -a 0 -i 23 -k RTR
h -t 0.623370027 -s 1 -d 0 -p ack -e 40 -c 2 -a 0 -i 23 -k RTR
r -t 0.625254627 -s 0 -d 0 -p ack -e 40 -c 2 -a 0 -i 15 -k AGT
+ -t 0.625254627 -s 0 -d -1 -p tcp -e 1040 -c 2 -a 0 -i 24 -k AGT 
- -t 0.625254627 -s 0 -d -1 -p tcp -e 1040 -c 2 -a 0 -i 24 -k AGT
h -t 0.625254627 -s 0 -d -1 -p tcp -e 1040 -c 2 -a 0 -i 24 -k AGT
+ -t 0.625254627 -s 0 -d -1 -p tcp -e 1040 -c 2 -a 0 -i 25 -k AGT 
- -t 0.625254627 -s 0 -d -1 -p tcp -e 1040 -c 2 -a 0 -i 25 -k AGT
h -t 0.625254627 -s 0 -d -1 -p tcp -e 1040 -c 2 -a 0 -i 25 -k AGT
+ -t 0.625254627 -s 0 -d 1 -p tcp -e 1040 -c 2 -a 0 -i 24 -k RTR 
- -t 0.625254627 -s 0 -d 1 -p tcp -e 1040 -c 2 -a 0 -i 24 -k RTR
h -t 0.625254627 -s 0 -d 1 -p tcp -e 1040 -c 2 -a 0 -i 24 -k RTR
+ -t 0.625254627 -s 0 -d 1 -p tcp -e 1040 -c 2 -a 0 -i 25 -k RTR 
- -t 0.625254627 -s 0 -d 1 -p tcp -e 1040 -c 2 -a 0 -i 25 -k RTR
h -t 0.625254627 -s 0 -d 1 -p tcp -e 1040 -c 2 -a 0 -i 25 -k RTR
r -t 0.635319227 -s 1 -d 1 -p tcp -e 1040 -c 2 -a 0 -i 19 -k AGT
+ -t 0.635319227 -s 1 -d -1 -p ack -e 40 -c 2 -a 0 -i 26 -k AGT 
- -t 0.635319227 -s 1 -d -1 -p ack -e 40 -c 2 -a 0 -i 26 -k AGT
h -t 0.635319227 -s 1 -d -1 -p ack -e 40 -c 2 -a 0 -i 26 -k AGT
+ -t 0.635319227 -s 1 -d 0 -p ack -e 40 -c 2 -a 0 -i 26 -k RTR 
- -t 0.635319227 -s 1 -d 0 -p ack -e 40 -c 2 -a 0 -i 26 -k RTR
h -t 0.635319227 -s 1 -d 0 -p ack -e 40 -c 2 -a 0 -i 26 -k RTR
r -t 0.637263827 -s 0 -d 0 -p ack -e 40 -c 2 -a 0 -i 16 -k AGT
+ -t 0.637263827 -s 0 -d -1 -p tcp -e 1040 -c 2 -a 0 -i 27 -k AGT 
- -t 0.637263827 -s 0 -d -1 -p tcp -e 1040 -c 2 -a 0 -i 27 -k AGT
h -t 0.637263827 -s 0 -d -1 -p tcp -e 1040 -c 2 -a 0 -i 27 -k AGT
+ -t 0.637263827 -s 0 -d -1 -p tcp -e 1040 -c 2 -a 0 -i 28 -k AGT 
- -t 0.637263827 -s 0 -d -1 -p tcp -e 1040 -c 2 -a 0 -i 28 -k AGT
h -t 0.637263827 -s 0 -d -1 -p tcp -e 1040 -c 2 -a 0 -i 28 -k AGT
+ -t 0.637263827 -s 0 -d 1 -p tcp -e 1040 -c 2 -a 0 -i 27 -k RTR 
- -t 0.637263827 -s 0 -d 1 -p tcp -e 1040 -c 2 -a 0 -i 27 -k RTR
h -t 0.637263827 -s 0 -d 1 -p tcp -e 1040 -c 2 -a 0 -i 27 -k RTR
+ -t 0.637263827 -s 0 -d 1 -p tcp -e 1040 -c 2 -a 0 -i 28 -k RTR 
- -t 0.637263827 -s 0 -d 1 -p tcp -e 1040 -c 2 -a 0 -i 28 -k RTR
h -t 0.637263827 -s 0 -d 1 -p tcp -e 1040 -c 2 -a 0 -i 28 -k RTR
r -t 0.647108427 -s 1 -d 1 -p tcp -e 1040 -c 2 -a 0 -i 20 -k AGT
+ -t 0.647108427 -s 1 -d -1 -p ack -e 40 -c 2 -a 0 -i 29 -k AGT 
- -t 0.647108427 -s 1 -d -1 -p ack -e 40 -c 2 -a 0 -i 29 -k AGT
h -t 0.647108427 -s 1 -d -1 -p ack -e 40 -c 2 -a 0 -i 29 -k AGT
+ -t 0.647108427 -s 1 -d 0 -p ack -e 40 -c 2 -a 0 -i 29 -k RTR 
- -t 0.647108427 -s 1 -d 0 -p ack -e 40 -c 2 -a 0 -i 29 -k RTR
h -t 0.647108427 -s 1 -d 0 -p ack -e 40 -c 2 -a 0 -i 29 -k RTR
r -t 0.648993027 -s 0 -d 0 -p ack -e 40 -c 2 -a 0 -i 21 -k AGT
+ -t 0.648993027 -s 0 -d -1 -p tcp -e 1040 -c 2 -a 0 -i 30 -k AGT 
- -t 0.648993027 -s 0 -d -1 -p tcp -e 1040 -c 2 -a 0 -i 30 -k AGT
h -t 0.648993027 -s 0 -d -1 -p tcp -e 1040 -c 2 -a 0 -i 30 -k AGT
+ -t 0.648993027 -s 0 -d -1 -p tcp -e 1040 -c 2 -a 0 -i 31 -k AGT 
- -t 0.648993027 -s 0 -d -1 -p tcp -e 1040 -c 2 -a 0 -i 31 -k AGT
h -t 0.648993027 -s 0 -d -1 -p tcp -e 1040 -c 2 -a 0 -i 31 -k AGT
+ -t 0.648993027 -s 0 -d 1 -p tcp -e 1040 -c 2 -a 0 -i 30 -k RTR 
- -t 0.648993027 -s 0 -d 1 -p tcp -e 1040 -c 2 -a 0 -i 30 -k RTR
h -t 0.648993027 -s 0 -d 1 -p tcp -e 1040 -c 2 -a 0 -i 30 -k RTR
+ -t 0.648993027 -s 0 -d 1 -p tcp -e 1040 -c 2 -a 0 -i 31 -k RTR 
- -t 0.648993027 -s 0 -d 1 -p tcp -e 1040 -c 2 -a 0 -i 31 -k RTR
h -t 0.648993027 -s 0 -d 1 -p tcp -e 1040 -c 2 -a 0 -i 31 -k RTR
r -t 0.651017827 -s 0 -d 0 -p ack -e 40 -c 2 -a 0 -i 22 -k AGT
+ -t 0.651017827 -s 0 -d -1 -p tcp -e 1040 -c 2 -a 0 -i 32 -k AGT 
- -t 0.651017827 -s 0 -d -1 -p tcp -e 1040 -c 2 -a 0 -i 32 -k AGT
h -t 0.651017827 -s 0 -d -1 -p tcp -e 1040 -c 2 -a 0 -i 32 -k AGT
+ -t 0.651017827 -s 0 -d -1 -p tcp -e 1040 -c 2 -a 0 -i 33 -k AGT 
- -t 0.651017827 -s 0 -d -1 -p tcp -e 1040 -c 2 -a 0 -i 33 -k AGT
h -t 0.651017827 -s 0 -d -1 -p tcp -e 1040 -c 2 -a 0 -i 33 -k AGT
+ -t 0.651017827 -s 0 -d 1 -p tcp -e 1040 -c 2 -a 0 -i 32 -k RTR 
- -t 0.651017827 -s 0 -d 1 -p tcp -e 1040 -c 2 -a 0 -i 32 -k RTR
h -t 0.651017827 -s 0 -d 1 -p tcp -e 1040 -c 2 -a 0 -i 32 -k RTR
+ -t 0.651017827 -s 0 -d 1 -p tcp -e 1040 -c 2 -a 0 -i 33 -k RTR 
- -t 0.651017827 -s 0 -d 1 -p tcp -e 1040 -c 2 -a 0 -i 33 -k RTR
h -t 0.651017827 -s 0 -d 1 -p tcp -e 1040 -c 2 -a 0 -i 33 -k RTR
r -t 0.660862427 -s 1 -d 1 -p tcp -e 1040 -c 2 -a 0 -i 24 -k AGT
+ -t 0.660862427 -s 1 -d -1 -p ack -e 40 -c 2 -a 0 -i 34 -k AGT 
- -t 0.660862427 -s 1 -d -1 -p ack -e 40 -c 2 -a 0 -i 34 -k AGT
h -t 0.660862427 -s 1 -d -1 -p ack -e 40 -c 2 -a 0 -i 34 -k AGT
+ -t 0.660862427 -s 1 -d 0 -p ack -e 40 -c 2 -a 0 -i 34 -k RTR 
- -t 0.660862427 -s 1 -d 0 -p ack -e 40 -c 2 -a 0 -i 34 -k RTR
h -t 0.660862427 -s 1 -d 0 -p ack -e 40 -c 2 -a 0 -i 34 -k RTR
r -t 0.662767027 -s 0 -d 0 -p ack -e 40 -c 2 -a 0 -i 23 -k AGT
+ -t 0.662767027 -s 0 -d -1 -p tcp -e 1040 -c 2 -a 0 -i 35 -k AGT 
- -t 0.662767027 -s 0 -d -1 -p tcp -e 1040 -c 2 -a 0 -i 35 -k AGT
h -t 0.662767027 -s 0 -d -1 -p tcp -e 1040 -c 2 -a 0 -i 35 -k AGT
+ -t 0.662767027 -s 0 -d -1 -p tcp -e 1040 -c 2 -a 0 -i 36 -k AGT 
- -t 0.662767027 -s 0 -d -1 -p tcp -e 1040 -c 2 -a 0 -i 36 -k AGT
h -t 0.662767027 -s 0 -d -1 -p tcp -e 1040 -c 2 -a 0 -i 36 -k AGT
+ -t 0.662767027 -s 0 -d 1 -p tcp -e 1040 -c 2 -a 0 -i 35 -k RTR 
- -t 0.662767027 -s 0 -d 1 -p tcp -e 1040 -c 2 -a 0 -i 35 -k RTR
h -t 0.662767027 -s 0 -d 1 -p tcp -e 1040 -c 2 -a 0 -i 35 -k RTR
+ -t 0.662767027 -s 0 -d 1 -p tcp -e 1040 -c 2 -a 0 -i 36 -k RTR 
- -t 0.662767027 -s 0 -d 1 -p tcp -e 1040 -c 2 -a 0 -i 36 -k RTR
h -t 0.662767027 -s 0 -d 1 -p tcp -e 1040 -c 2 -a 0 -i 36 -k RTR
r -t 0.664811827 -s 0 -d 0 -p ack -e 40 -c 2 -a 0 -i 26 -k AGT
+ -t 0.664811827 -s 0 -d -1 -p tcp -e 1040 -c 2 -a 0 -i 37 -k AGT 
- -t 0.664811827 -s 0 -d -1 -p tcp -e 1040 -c 2 -a 0 -i 37 -k AGT
h -t 0.664811827 -s 0 -d -1 -p tcp -e 1040 -c 2 -a 0 -i 37 -k AGT
+ -t 0.664811827 -s 0 -d -1 -p tcp -e 1040 -c 2 -a 0 -i 38 -k AGT 
- -t 0.664811827 -s 0 -d -1 -p tcp -e 1040 -c 2 -a 0 -i 38 -k AGT
h -t 0.664811827 -s 0 -d -1 -p tcp -e 1040 -c 2 -a 0 -i 38 -k AGT
+ -t 0.664811827 -s 0 -d 1 -p tcp -e 1040 -c 2 -a 0 -i 37 -k RTR 
- -t 0.664811827 -s 0 -d 1 -p tcp -e 1040 -c 2 -a 0 -i 37 -k RTR
h -t 0.664811827 -s 0 -d 1 -p tcp -e 1040 -c 2 -a 0 -i 37 -k RTR
+ -t 0.664811827 -s 0 -d 1 -p tcp -e 1040 -c 2 -a 0 -i 38 -k RTR 
- -t 0.664811827 -s 0 -d 1 -p tcp -e 1040 -c 2 -a 0 -i 38 -k RTR
h -t 0.664811827 -s 0 -d 1 -p tcp -e 1040 -c 2 -a 0 -i 38 -k RTR
r -t 0.666836627 -s 0 -d 0 -p ack -e 40 -c 2 -a 0 -i 29 -k AGT
+ -t 0.666836627 -s 0 -d -1 -p tcp -e 1040 -c 2 -a 0 -i 39 -k AGT 
- -t 0.666836627 -s 0 -d -1 -p tcp -e 1040 -c 2 -a 0 -i 39 -k AGT
h -t 0.666836627 -s 0 -d -1 -p tcp -e 1040 -c 2 -a 0 -i 39 -k AGT
+ -t 0.666836627 -s 0 -d -1 -p tcp -e 1040 -c 2 -a 0 -i 40 -k AGT 
- -t 0.666836627 -s 0 -d -1 -p tcp -e 1040 -c 2 -a 0 -i 40 -k AGT
h -t 0.666836627 -s 0 -d -1 -p tcp -e 1040 -c 2 -a 0 -i 40 -k AGT
+ -t 0.666836627 -s 0 -d 1 -p tcp -e 1040 -c 2 -a 0 -i 39 -k RTR 
- -t 0.666836627 -s 0 -d 1 -p tcp -e 1040 -c 2 -a 0 -i 39 -k RTR
h -t 0.666836627 -s 0 -d 1 -p tcp -e 1040 -c 2 -a 0 -i 39 -k RTR
+ -t 0.666836627 -s 0 -d 1 -p tcp -e 1040 -c 2 -a 0 -i 40 -k RTR 
- -t 0.666836627 -s 0 -d 1 -p tcp -e 1040 -c 2 -a 0 -i 40 -k RTR
h -t 0.666836627 -s 0 -d 1 -p tcp -e 1040 -c 2 -a 0 -i 40 -k RTR
r -t 0.676701227 -s 1 -d 1 -p tcp -e 1040 -c 2 -a 0 -i 25 -k AGT
+ -t 0.676701227 -s 1 -d -1 -p ack -e 40 -c 2 -a 0 -i 41 -k AGT 
- -t 0.676701227 -s 1 -d -1 -p ack -e 40 -c 2 -a 0 -i 41 -k AGT
h -t 0.676701227 -s 1 -d -1 -p ack -e 40 -c 2 -a 0 -i 41 -k AGT
+ -t 0.676701227 -s 1 -d 0 -p ack -e 40 -c 2 -a 0 -i 41 -k RTR 
- -t 0.676701227 -s 1 -d 0 -p ack -e 40 -c 2 -a 0 -i 41 -k RTR
h -t 0.676701227 -s 1 -d 0 -p ack -e 40 -c 2 -a 0 -i 41 -k RTR
r -t 0.686586027 -s 1 -d 1 -p tcp -e 1040 -c 2 -a 0 -i 27 -k AGT
+ -t 0.686586027 -s 1 -d -1 -p ack -e 40 -c 2 -a 0 -i 42 -k AGT 
- -t 0.686586027 -s 1 -d -1 -p ack -e 40 -c 2 -a 0 -i 42 -k AGT
h -t 0.686586027 -s 1 -d -1 -p ack -e 40 -c 2 -a 0 -i 42 -k AGT
+ -t 0.686586027 -s 1 -d 0 -p ack -e 40 -c 2 -a 0 -i 42 -k RTR 
- -t 0.686586027 -s 1 -d 0 -p ack -e 40 -c 2 -a 0 -i 42 -k RTR
h -t 0.686586027 -s 1 -d 0 -p ack -e 40 -c 2 -a 0 -i 42 -k RTR
r -t 0.696530827 -s 1 -d 1 -p tcp -e 1040 -c 2 -a 0 -i 28 -k AGT
+ -t 0.696530827 -s 1 -d -1 -p ack -e 40 -c 2 -a 0 -i 43 -k AGT 
- -t 0.696530827 -s 1 -d -1 -p ack -e 40 -c 2 -a 0 -i 43 -k AGT
h -t 0.696530827 -s 1 -d -1 -p ack -e 40 -c 2 -a 0 -i 43 -k AGT
+ -t 0.696530827 -s 1 -d 0 -p ack -e 40 -c 2 -a 0 -i 43 -k RTR 
- -t 0.696530827 -s 1 -d 0 -p ack -e 40 -c 2 -a 0 -i 43 -k RTR
h -t 0.696530827 -s 1 -d 0 -p ack -e 40 -c 2 -a 0 -i 43 -k RTR
r -t 0.706695627 -s 1 -d 1 -p tcp -e 1040 -c 2 -a 0 -i 30 -k AGT
+ -t 0.706695627 -s 1 -d -1 -p ack -e 40 -c 2 -a 0 -i 44 -k AGT 
- -t 0.706695627 -s 1 -d -1 -p ack -e 40 -c 2 -a 0 -i 44 -k AGT
h -t 0.706695627 -s 1 -d -1 -p ack -e 40 -c 2 -a 0 -i 44 -k AGT
+ -t 0.706695627 -s 1 -d 0 -p ack -e 40 -c 2 -a 0 -i 44 -k RTR 
- -t 0.706695627 -s 1 -d 0 -p ack -e 40 -c 2 -a 0 -i 44 -k RTR
h -t 0.706695627 -s 1 -d 0 -p ack -e 40 -c 2 -a 0 -i 44 -k RTR
r -t 0.708540227 -s 0 -d 0 -p ack -e 40 -c 2 -a 0 -i 34 -k AGT
+ -t 0.708540227 -s 0 -d -1 -p tcp -e 1040 -c 2 -a 0 -i 45 -k AGT 
- -t 0.708540227 -s 0 -d -1 -p tcp -e 1040 -c 2 -a 0 -i 45 -k AGT
h -t 0.708540227 -s 0 -d -1 -p tcp -e 1040 -c 2 -a 0 -i 45 -k AGT
+ -t 0.708540227 -s 0 -d -1 -p tcp -e 1040 -c 2 -a 0 -i 46 -k AGT 
- -t 0.708540227 -s 0 -d -1 -p tcp -e 1040 -c 2 -a 0 -i 46 -k AGT
h -t 0.708540227 -s 0 -d -1 -p tcp -e 1040 -c 2 -a 0 -i 46 -k AGT
+ -t 0.708540227 -s 0 -d 1 -p tcp -e 1040 -c 2 -a 0 -i 45 -k RTR 
- -t 0.708540227 -s 0 -d 1 -p tcp -e 1040 -c 2 -a 0 -i 45 -k RTR
h -t 0.708540227 -s 0 -d 1 -p tcp -e 1040 -c 2 -a 0 -i 45 -k RTR
+ -t 0.708540227 -s 0 -d 1 -p tcp -e 1040 -c 2 -a 0 -i 46 -k RTR 
- -t 0.708540227 -s 0 -d 1 -p tcp -e 1040 -c 2 -a 0 -i 46 -k RTR
h -t 0.708540227 -s 0 -d 1 -p tcp -e 1040 -c 2 -a 0 -i 46 -k RTR
r -t 0.710645027 -s 0 -d 0 -p ack -e 40 -c 2 -a 0 -i 41 -k AGT
+ -t 0.710645027 -s 0 -d -1 -p tcp -e 1040 -c 2 -a 0 -i 47 -k AGT 
- -t 0.710645027 -s 0 -d -1 -p tcp -e 1040 -c 2 -a 0 -i 47 -k AGT
h -t 0.710645027 -s 0 -d -1 -p tcp -e 1040 -c 2 -a 0 -i 47 -k AGT
+ -t 0.710645027 -s 0 -d -1 -p tcp -e 1040 -c 2 -a 0 -i 48 -k AGT 
- -t 0.710645027 -s 0 -d -1 -p tcp -e 1040 -c 2 -a 0 -i 48 -k AGT
h -t 0.710645027 -s 0 -d -1 -p tcp -e 1040 -c 2 -a 0 -i 48 -k AGT
+ -t 0.710645027 -s 0 -d 1 -p tcp -e 1040 -c 2 -a 0 -i 47 -k RTR 
- -t 0.710645027 -s 0 -d 1 -p tcp -e 1040 -c 2 -a 0 -i 47 -k RTR
h -t 0.710645027 -s 0 -d 1 -p tcp -e 1040 -c 2 -a 0 -i 47 -k RTR
+ -t 0.710645027 -s 0 -d 1 -p tcp -e 1040 -c 2 -a 0 -i 48 -k RTR 
- -t 0.710645027 -s 0 -d 1 -p tcp -e 1040 -c 2 -a 0 -i 48 -k RTR
h -t 0.710645027 -s 0 -d 1 -p tcp -e 1040 -c 2 -a 0 -i 48 -k RTR
r -t 0.712649827 -s 0 -d 0 -p ack -e 40 -c 2 -a 0 -i 42 -k AGT
+ -t 0.712649827 -s 0 -d -1 -p tcp -e 1040 -c 2 -a 0 -i 49 -k AGT 
- -t 0.712649827 -s 0 -d -1 -p tcp -e 1040 -c 2 -a 0 -i 49 -k AGT
h -t 0.712649827 -s 0 -d -1 -p tcp -e 1040 -c 2 -a 0 -i 49 -k AGT
+ -t 0.712649827 -s 0 -d -1 -p tcp -e 1040 -c 2 -a 0 -i 50 -k AGT 
- -t 0.712649827 -s 0 -d -1 -p tcp -e 1040 -c 2 -a 0 -i 50 -k AGT
h -t 0.712649827 -s 0 -d -1 -p tcp -e 1040 -c 2 -a 0 -i 50 -k AGT
+ -t 0.712649827 -s 0 -d 1 -p tcp -e 1040 -c 2 -a 0 -i 49 -k RTR 
- -t 0.712649827 -s 0 -d 1 -p tcp -e 1040 -c 2 -a 0 -i 49 -k RTR
h -t 0.712649827 -s 0 -d 1 -p tcp -e 1040 -c 2 -a 0 -i 49 -k RTR
+ -t 0.712649827 -s 0 -d 1 -p tcp -e 1040 -c 2 -a 0 -i 50 -k RTR 
- -t 0.712649827 -s 0 -d 1 -p tcp -e 1040 -c 2 -a 0 -i 50 -k RTR
h -t 0.712649827 -s 0 -d 1 -p tcp -e 1040 -c 2 -a 0 -i 50 -k RTR
r -t 0.722494427 -s 1 -d 1 -p tcp -e 1040 -c 2 -a 0 -i 31 -k AGT
+ -t 0.722494427 -s 1 -d -1 -p ack -e 40 -c 2 -a 0 -i 51 -k AGT 
- -t 0.722494427 -s 1 -d -1 -p ack -e 40 -c 2 -a 0 -i 51 -k AGT
h -t 0.722494427 -s 1 -d -1 -p ack -e 40 -c 2 -a 0 -i 51 -k AGT
+ -t 0.722494427 -s 1 -d 0 -p ack -e 40 -c 2 -a 0 -i 51 -k RTR 
- -t 0.722494427 -s 1 -d 0 -p ack -e 40 -c 2 -a 0 -i 51 -k RTR
h -t 0.722494427 -s 1 -d 0 -p ack -e 40 -c 2 -a 0 -i 51 -k RTR
r -t 0.724579027 -s 0 -d 0 -p ack -e 40 -c 2 -a 0 -i 43 -k AGT
+ -t 0.724579027 -s 0 -d -1 -p tcp -e 1040 -c 2 -a 0 -i 52 -k AGT 
- -t 0.724579027 -s 0 -d -1 -p tcp -e 1040 -c 2 -a 0 -i 52 -k AGT
h -t 0.724579027 -s 0 -d -1 -p tcp -e 1040 -c 2 -a 0 -i 52 -k AGT
+ -t 0.724579027 -s 0 -d -1 -p tcp -e 1040 -c 2 -a 0 -i 53 -k AGT 
- -t 0.724579027 -s 0 -d -1 -p tcp -e 1040 -c 2 -a 0 -i 53 -k AGT
h -t 0.724579027 -s 0 -d -1 -p tcp -e 1040 -c 2 -a 0 -i 53 -k AGT
+ -t 0.724579027 -s 0 -d 1 -p tcp -e 1040 -c 2 -a 0 -i 52 -k RTR 
- -t 0.724579027 -s 0 -d 1 -p tcp -e 1040 -c 2 -a 0 -i 52 -k RTR
h -t 0.724579027 -s 0 -d 1 -p tcp -e 1040 -c 2 -a 0 -i 52 -k RTR
+ -t 0.724579027 -s 0 -d 1 -p tcp -e 1040 -c 2 -a 0 -i 53 -k RTR 
- -t 0.724579027 -s 0 -d 1 -p tcp -e 1040 -c 2 -a 0 -i 53 -k RTR
h -t 0.724579027 -s 0 -d 1 -p tcp -e 1040 -c 2 -a 0 -i 53 -k RTR
r -t 0.726403827 -s 0 -d 0 -p ack -e 40 -c 2 -a 0 -i 44 -k AGT
+ -t 0.726403827 -s 0 -d -1 -p tcp -e 1040 -c 2 -a 0 -i 54 -k AGT 
- -t 0.726403827 -s 0 -d -1 -p tcp -e 1040 -c 2 -a 0 -i 54 -k AGT
h -t 0.726403827 -s 0 -d -1 -p tcp -e 1040 -c 2 -a 0 -i 54 -k AGT
+ -t 0.726403827 -s 0 -d -1 -p tcp -e 1040 -c 2 -a 0 -i 55 -k AGT 
- -t 0.726403827 -s 0 -d -1 -p tcp -e 1040 -c 2 -a 0 -i 55 -k AGT
h -t 0.726403827 -s 0 -d -1 -p tcp -e 1040 -c 2 -a 0 -i 55 -k AGT
+ -t 0.726403827 -s 0 -d 1 -p tcp -e 1040 -c 2 -a 0 -i 54 -k RTR 
- -t 0.726403827 -s 0 -d 1 -p tcp -e 1040 -c 2 -a 0 -i 54 -k RTR
h -t 0.726403827 -s 0 -d 1 -p tcp -e 1040 -c 2 -a 0 -i 54 -k RTR
+ -t 0.726403827 -s 0 -d 1 -p tcp -e 1040 -c 2 -a 0 -i 55 -k RTR 
- -t 0.726403827 -s 0 -d 1 -p tcp -e 1040 -c 2 -a 0 -i 55 -k RTR
h -t 0.726403827 -s 0 -d 1 -p tcp -e 1040 -c 2 -a 0 -i 55 -k RTR
r -t 0.729554627 -s 0 -d 0 -p ack -e 40 -c 2 -a 0 -i 51 -k AGT
+ -t 0.729554627 -s 0 -d -1 -p tcp -e 1040 -c 2 -a 0 -i 56 -k AGT 
- -t 0.729554627 -s 0 -d -1 -p tcp -e 1040 -c 2 -a 0 -i 56 -k AGT
h -t 0.729554627 -s 0 -d -1 -p tcp -e 1040 -c 2 -a 0 -i 56 -k AGT
+ -t 0.729554627 -s 0 -d -1 -p tcp -e 1040 -c 2 -a 0 -i 57 -k AGT 
- -t 0.729554627 -s 0 -d -1 -p tcp -e 1040 -c 2 -a 0 -i 57 -k AGT
h -t 0.729554627 -s 0 -d -1 -p tcp -e 1040 -c 2 -a 0 -i 57 -k AGT
+ -t 0.729554627 -s 0 -d 1 -p tcp -e 1040 -c 2 -a 0 -i 56 -k RTR 
- -t 0.729554627 -s 0 -d 1 -p tcp -e 1040 -c 2 -a 0 -i 56 -k RTR
h -t 0.729554627 -s 0 -d 1 -p tcp -e 1040 -c 2 -a 0 -i 56 -k RTR
+ -t 0.729554627 -s 0 -d 1 -p tcp -e 1040 -c 2 -a 0 -i 57 -k RTR 
- -t 0.729554627 -s 0 -d 1 -p tcp -e 1040 -c 2 -a 0 -i 57 -k RTR
h -t 0.729554627 -s 0 -d 1 -p tcp -e 1040 -c 2 -a 0 -i 57 -k RTR
r -t 0.739919227 -s 1 -d 1 -p tcp -e 1040 -c 2 -a 0 -i 32 -k AGT
+ -t 0.739919227 -s 1 -d -1 -p ack -e 40 -c 2 -a 0 -i 58 -k AGT 
- -t 0.739919227 -s 1 -d -1 -p ack -e 40 -c 2 -a 0 -i 58 -k AGT
h -t 0.739919227 -s 1 -d -1 -p ack -e 40 -c 2 -a 0 -i 58 -k AGT
+ -t 0.739919227 -s 1 -d 0 -p ack -e 40 -c 2 -a 0 -i 58 -k RTR 
- -t 0.739919227 -s 1 -d 0 -p ack -e 40 -c 2 -a 0 -i 58 -k RTR
h -t 0.739919227 -s 1 -d 0 -p ack -e 40 -c 2 -a 0 -i 58 -k RTR
r -t 0.741823827 -s 0 -d 0 -p ack -e 40 -c 2 -a 0 -i 58 -k AGT
+ -t 0.741823827 -s 0 -d -1 -p tcp -e 1040 -c 2 -a 0 -i 59 -k AGT 
- -t 0.741823827 -s 0 -d -1 -p tcp -e 1040 -c 2 -a 0 -i 59 -k AGT
h -t 0.741823827 -s 0 -d -1 -p tcp -e 1040 -c 2 -a 0 -i 59 -k AGT
+ -t 0.741823827 -s 0 -d 1 -p tcp -e 1040 -c 2 -a 0 -i 59 -k RTR 
- -t 0.741823827 -s 0 -d 1 -p tcp -e 1040 -c 2 -a 0 -i 59 -k RTR
h -t 0.741823827 -s 0 -d 1 -p tcp -e 1040 -c 2 -a 0 -i 59 -k RTR
r -t 0.751888427 -s 1 -d 1 -p tcp -e 1040 -c 2 -a 0 -i 33 -k AGT
+ -t 0.751888427 -s 1 -d -1 -p ack -e 40 -c 2 -a 0 -i 60 -k AGT 
- -t 0.751888427 -s 1 -d -1 -p ack -e 40 -c 2 -a 0 -i 60 -k AGT
h -t 0.751888427 -s 1 -d -1 -p ack -e 40 -c 2 -a 0 -i 60 -k AGT
+ -t 0.751888427 -s 1 -d 0 -p ack -e 40 -c 2 -a 0 -i 60 -k RTR 
- -t 0.751888427 -s 1 -d 0 -p ack -e 40 -c 2 -a 0 -i 60 -k RTR
h -t 0.751888427 -s 1 -d 0 -p ack -e 40 -c 2 -a 0 -i 60 -k RTR
r -t 0.753953027 -s 0 -d 0 -p ack -e 40 -c 2 -a 0 -i 60 -k AGT
+ -t 0.753953027 -s 0 -d -1 -p tcp -e 1040 -c 2 -a 0 -i 61 -k AGT 
- -t 0.753953027 -s 0 -d -1 -p tcp -e 1040 -c 2 -a 0 -i 61 -k AGT
h -t 0.753953027 -s 0 -d -1 -p tcp -e 1040 -c 2 -a 0 -i 61 -k AGT
+ -t 0.753953027 -s 0 -d 1 -p tcp -e 1040 -c 2 -a 0 -i 61 -k RTR 
- -t 0.753953027 -s 0 -d 1 -p tcp -e 1040 -c 2 -a 0 -i 61 -k RTR
h -t 0.753953027 -s 0 -d 1 -p tcp -e 1040 -c 2 -a 0 -i 61 -k RTR
r -t 0.763837627 -s 1 -d 1 -p tcp -e 1040 -c 2 -a 0 -i 35 -k AGT
+ -t 0.763837627 -s 1 -d -1 -p ack -e 40 -c 2 -a 0 -i 62 -k AGT 
- -t 0.763837627 -s 1 -d -1 -p ack -e 40 -c 2 -a 0 -i 62 -k AGT
h -t 0.763837627 -s 1 -d -1 -p ack -e 40 -c 2 -a 0 -i 62 -k AGT
+ -t 0.763837627 -s 1 -d 0 -p ack -e 40 -c 2 -a 0 -i 62 -k RTR 
- -t 0.763837627 -s 1 -d 0 -p ack -e 40 -c 2 -a 0 -i 62 -k RTR
h -t 0.763837627 -s 1 -d 0 -p ack -e 40 -c 2 -a 0 -i 62 -k RTR
r -t 0.773682427 -s 1 -d 1 -p tcp -e 1040 -c 2 -a 0 -i 36 -k AGT
+ -t 0.773682427 -s 1 -d -1 -p ack -e 40 -c 2 -a 0 -i 63 -k AGT 
- -t 0.773682427 -s 1 -d -1 -p ack -e 40 -c 2 -a 0 -i 63 -k AGT
h -t 0.773682427 -s 1 -d -1 -p ack -e 40 -c 2 -a 0 -i 63 -k AGT
+ -t 0.773682427 -s 1 -d 0 -p ack -e 40 -c 2 -a 0 -i 63 -k RTR 
- -t 0.773682427 -s 1 -d 0 -p ack -e 40 -c 2 -a 0 -i 63 -k RTR
h -t 0.773682427 -s 1 -d 0 -p ack -e 40 -c 2 -a 0 -i 63 -k RTR
r -t 0.775707027 -s 0 -d 0 -p ack -e 40 -c 2 -a 0 -i 62 -k AGT
+ -t 0.775707027 -s 0 -d -1 -p tcp -e 1040 -c 2 -a 0 -i 64 -k AGT 
- -t 0.775707027 -s 0 -d -1 -p tcp -e 1040 -c 2 -a 0 -i 64 -k AGT
h -t 0.775707027 -s 0 -d -1 -p tcp -e 1040 -c 2 -a 0 -i 64 -k AGT